 Gaussian 16, Revision A.03,
 Gaussian 16:  EM64L-G16RevA.03 25-Dec-2016

 ----------------------------------------------------------------------
 # opt=tight freq=(hpmodes,savenormalmodes) b3lyp/6-311++g(2d,2p) geom=
 connectivity empiricaldispersion=gd3bj
 ----------------------------------------------------------------------

 --------------------------------------------------------
 Ovalene ground state optimization + freq with dispersion
 --------------------------------------------------------
 Symbolic Z-matrix:
 Charge =  0 Multiplicity = 1

 SCF Done:  E(RB3LYP) =  -1228.46179279     A.U. after   13 cycles
 SCF Done:  E(RB3LYP) =  -1228.46182414     A.U. after    8 cycles
 SCF Done:  E(RB3LYP) =  -1228.46182484     A.U. after    6 cycles
 SCF Done:  E(RB3LYP) =  -1228.46182484     A.U. after    5 cycles
 Optimization completed.
    -- Stationary point found.
 Normal termination of Gaussian 16 at Tue Feb  7 17:58:59 2023.

 ----------------------------------------------------------------------
 #N Geom=AllCheck Guess=TCheck SCRF=Check GenChk RB3LYP/6-311++G(2d,2p)
  Freq
 ----------------------------------------------------------------------

 Structure from the checkpoint file:  "ovalene ground opt freq disp.chk"
 --------------------------------------------------------
 Ovalene ground state optimization + freq with dispersion
 --------------------------------------------------------
 Charge =  0 Multiplicity = 1

                         Standard orientation:
 ---------------------------------------------------------------------
 Center     Atomic      Atomic             Coordinates (Angstroms)
 Number     Number       Type             X           Y           Z
 ---------------------------------------------------------------------
      1          6           0       -0.000000    2.455602   -0.710889
      2          6           0       -0.000000    1.223632   -1.421565
      3          6           0       -0.000000    0.000000   -0.715172
      4          6           0       -0.000000    0.000000    0.715172
      5          6           0       -0.000000    1.223632    1.421565
      6          6           0       -0.000000    2.455602    0.710889
      7          6           0        0.000000   -1.223632   -1.421565
      8          6           0        0.000000   -1.223632    1.421565
      9          6           0        0.000000   -2.455602    0.710889
     10          6           0        0.000000   -2.455602   -0.710889
     11          6           0        0.000000   -3.683542    1.417883
     12          6           0        0.000000   -3.652555    2.846432
     13          6           0        0.000000   -2.477652    3.530252
     14          6           0        0.000000   -1.219877    2.848439
     15          6           0        0.000000   -0.000000    3.527927
     16          6           0       -0.000000    1.219877    2.848439
     17          1           0        0.000000   -0.000000    4.610362
     18          1           0        0.000000   -4.593038    3.381164
     19          1           0        0.000000   -2.476213    4.611981
     20          6           0       -0.000000    1.219877   -2.848439
     21          6           0        0.000000   -0.000000   -3.527927
     22          6           0        0.000000   -1.219877   -2.848439
     23          1           0        0.000000   -0.000000   -4.610362
     24          6           0        0.000000   -2.477652   -3.530252
     25          6           0        0.000000   -3.652555   -2.846432
     26          6           0        0.000000   -3.683542   -1.417883
     27          1           0        0.000000   -2.476213   -4.611981
     28          1           0        0.000000   -4.593038   -3.381164
     29          6           0        0.000000   -4.889694    0.687710
     30          1           0        0.000000   -5.826592    1.228555
     31          6           0        0.000000   -4.889694   -0.687710
     32          1           0        0.000000   -5.826592   -1.228555
     33          6           0       -0.000000    2.477652    3.530252
     34          6           0       -0.000000    3.652555    2.846432
     35          1           0       -0.000000    4.593038    3.381164
     36          6           0       -0.000000    3.683542    1.417883
     37          1           0       -0.000000    2.476213    4.611981
     38          6           0       -0.000000    4.889694    0.687710
     39          1           0       -0.000000    5.826592    1.228555
     40          6           0       -0.000000    3.683542   -1.417883
     41          6           0       -0.000000    2.477652   -3.530252
     42          6           0       -0.000000    3.652555   -2.846432
     43          1           0       -0.000000    4.593038   -3.381164
     44          6           0       -0.000000    4.889694   -0.687710
     45          1           0       -0.000000    5.826592   -1.228555
     46          1           0       -0.000000    2.476213   -4.611981
 ---------------------------------------------------------------------

 SCF Done:  E(RB3LYP) =  -1228.46182484     A.U. after    1 cycles

 The electronic state is 1-AG.
 Alpha  occ. eigenvalues --  -10.19197 -10.19158 -10.19105 -10.19104 -10.19101
 Alpha  occ. eigenvalues --  -10.19100 -10.19065 -10.19065 -10.19046 -10.19040
 Alpha  occ. eigenvalues --  -10.19018 -10.19013 -10.19005 -10.19001 -10.18964
 Alpha  occ. eigenvalues --  -10.18964 -10.18957 -10.18956 -10.18176 -10.18176
 Alpha  occ. eigenvalues --  -10.18175 -10.18175 -10.18112 -10.18112 -10.18109
 Alpha  occ. eigenvalues --  -10.18109 -10.18101 -10.18100 -10.18100 -10.18100
 Alpha  occ. eigenvalues --  -10.18045 -10.18045  -0.92069  -0.89654  -0.88550
 Alpha  occ. eigenvalues --   -0.86098  -0.85615  -0.83071  -0.81812  -0.81278
 Alpha  occ. eigenvalues --   -0.79605  -0.77184  -0.76474  -0.76179  -0.74615
 Alpha  occ. eigenvalues --   -0.73494  -0.72225  -0.70870  -0.65201  -0.65004
 Alpha  occ. eigenvalues --   -0.64962  -0.64345  -0.64216  -0.62661  -0.58726
 Alpha  occ. eigenvalues --   -0.58228  -0.57525  -0.55751  -0.54444  -0.54403
 Alpha  occ. eigenvalues --   -0.54055  -0.50840  -0.50040  -0.48953  -0.48890
 Alpha  occ. eigenvalues --   -0.48873  -0.47859  -0.46324  -0.45021  -0.44360
 Alpha  occ. eigenvalues --   -0.44173  -0.44013  -0.43907  -0.43265  -0.42688
 Alpha  occ. eigenvalues --   -0.42605  -0.41721  -0.41338  -0.40848  -0.40150
 Alpha  occ. eigenvalues --   -0.40143  -0.39843  -0.38774  -0.37451  -0.37306
 Alpha  occ. eigenvalues --   -0.37213  -0.36694  -0.36499  -0.35818  -0.34672
 Alpha  occ. eigenvalues --   -0.34118  -0.32301  -0.32203  -0.31947  -0.31773
 Alpha  occ. eigenvalues --   -0.30123  -0.27443  -0.26680  -0.26524  -0.25036
 Alpha  occ. eigenvalues --   -0.23765  -0.21578  -0.19278
 Alpha virt. eigenvalues --   -0.08521  -0.06172  -0.04426  -0.03711  -0.02039
 Alpha virt. eigenvalues --   -0.01943  -0.00888  -0.00853  -0.00413  -0.00321
 Alpha virt. eigenvalues --    0.00599   0.00659   0.01905   0.02006   0.02026

 Mulliken charges:
               1
     1  C   -0.136738
     2  C   -0.131429
     3  C   -0.095546
     4  C   -0.095546
     5  C   -0.131429
     6  C   -0.136738
     7  C   -0.131429
     8  C   -0.131429
     9  C   -0.136738
    10  C   -0.136738
    11  C    0.344670
    12  C   -0.178380
    13  C   -0.288937
    14  C    0.393747
    15  C   -0.142906
    16  C    0.393747
    17  H    0.037153
    18  H    0.098949
    19  H    0.106659
    20  C    0.393747
    21  C   -0.142906
    22  C    0.393747
    23  H    0.037153
    24  C   -0.288937
    25  C   -0.178380
    26  C    0.344670
    27  H    0.106659
    28  H    0.098949
    29  C   -0.200936
    30  H    0.093044
    31  C   -0.200936
    32  H    0.093044
    33  C   -0.288937
    34  C   -0.178380
    35  H    0.098949
    36  C    0.344670
    37  H    0.106659
    38  C   -0.200936
    39  H    0.093044
    40  C    0.344670
    41  C   -0.288937
    42  C   -0.178380
    43  H    0.098949
    44  C   -0.200936
    45  H    0.093044
    46  H    0.106659
 Sum of Mulliken charges =  -0.00000

 Dipole moment (field-independent basis, Debye):
    X=             -0.0000    Y=             -0.0000    Z=             -0.0000  Tot=              0.0000
 Quadrupole moment (field-independent basis, Debye-Ang):
   XX=           -190.8194   YY=           -157.7170   ZZ=           -158.2061
   XY=             -0.0000   XZ=             -0.0000   YZ=             -0.0000

  Exact polarizability: 157.948   0.000 630.538  -0.000   0.000 508.622
 Approx polarizability: 288.534  -0.0001238.999  -0.000  -0.0001065.265

                      1                      2                      3
                     AU                     B3U                    B3U
 Frequencies --     60.0653                60.9002               104.2624
 Red. masses --      5.4573                 5.7241                 5.1369
 Frc consts  --      0.0116                 0.0125                 0.0329
 IR Inten    --      0.0000                 0.7010                 4.2390

                      4                      5                      6
                     B1G                    B2G                    B1G
 Frequencies --    125.3188               152.2104               193.2813
 Red. masses --      4.6985                 5.1840                 5.3302
 Frc consts  --      0.0435                 0.0708                 0.1173
 IR Inten    --      0.0000                 0.0000                 0.0000

                      7                      8                      9
                     B3U                    AU                     B2G
 Frequencies --    211.8977               256.9073               270.0445
 Red. masses --      4.2907                 4.8109                 4.8120
 Frc consts  --      0.1135                 0.1871                 0.2067
 IR Inten    --      0.0037                 0.0000                 0.0000

                     10                     11                     12
                     B1U                    B3G                    AG
 Frequencies --    282.0470               319.5687               326.8479
 Red. masses --      5.8782                 8.5529                 8.6575
 Frc consts  --      0.2755                 0.5146                 0.5449
 IR Inten    --      4.6113                 0.0000                 0.0000

                     13                     14                     15
                     B1G                    AU                     B3U
 Frequencies --    327.5378               334.8869               342.2575
 Red. masses --      4.6048                 5.1870                 5.5013
 Frc consts  --      0.2911                 0.3427                 0.3797
 IR Inten    --      0.0000                 0.0000                 7.0568

                     16                     17                     18
                     B2G                    B2U                    AG
 Frequencies --    344.5108               400.4143               427.3095
 Red. masses --      4.2466                 6.1092                 5.9062
 Frc consts  --      0.2970                 0.5771                 0.6354
 IR Inten    --      0.0000                 5.3193                 0.0000

                     19                     20                     21
                     B2U                    B3U                    AG
 Frequencies --    433.2913               435.7954               459.7266
 Red. masses --      7.5151                 3.8692                 6.2406
 Frc consts  --      0.8313                 0.4329                 0.7771
 IR Inten    --      2.3812                 0.0173                 0.0000

                     22                     23                     24
                     AU                     B3G                    B1U
 Frequencies --    480.7303               484.9472               502.2328
 Red. masses --      3.7705                 5.0918                 5.9528
 Frc consts  --      0.5134                 0.7055                 0.8847
 IR Inten    --      0.0000                 0.0000                 0.0031

                     25                     26                     27
                     B2G                    B1G                    B2U
 Frequencies --    509.7065               532.6178               547.8475
 Red. masses --      3.4101                 4.7445                 5.3570
 Frc consts  --      0.5220                 0.7930                 0.9473
 IR Inten    --      0.0000                 0.0000                 0.0024

                     28                     29                     30
                     B3G                    B3U                    B2G
 Frequencies --    550.1485               553.0683               567.3908
 Red. masses --      5.2047                 3.7452                 4.6371
 Frc consts  --      0.9281                 0.6750                 0.8796
 IR Inten    --      0.0000                14.3453                 0.0000

                     31                     32                     33
                     B1G                    B1U                    AG
 Frequencies --    578.9546               588.5381               589.8074
 Red. masses --      3.4423                 5.0754                 6.8313
 Frc consts  --      0.6798                 1.0358                 1.4002
 IR Inten    --      0.0000                 1.1957                 0.0000

                     34                     35                     36
                     AU                     B2G                    B3U
 Frequencies --    623.2955               636.7795               646.7207
 Red. masses --      5.1048                 5.0144                 3.5559
 Frc consts  --      1.1685                 1.1980                 0.8763
 IR Inten    --      0.0000                 0.0000                34.1684

                     37                     38                     39
                     B3G                    AU                     B1U
 Frequencies --    655.0456               669.9107               670.2690
 Red. masses --      8.3711                 3.5105                 7.2960
 Frc consts  --      2.1163                 0.9282                 1.9312
 IR Inten    --      0.0000                 0.0000                 0.0440

                     40                     41                     42
                     B2U                    B3G                    B1U
 Frequencies --    690.8561               720.1369               721.6546
 Red. masses --      7.9502                 5.1540                 7.5138
 Frc consts  --      2.2357                 1.5748                 2.3055
 IR Inten    --      1.6529                 0.0000                 2.0043

                     43                     44                     45
                     B2G                    B1G                    AG
 Frequencies --    727.0768               759.4418               774.9583
 Red. masses --      4.0070                 2.6290                 6.1312
 Frc consts  --      1.2480                 0.8934                 2.1695
 IR Inten    --      0.0000                 0.0000                 0.0000

                     46                     47                     48
                     B3U                    B2G                    B2U
 Frequencies --    775.7560               789.1078               795.8600
 Red. masses --      1.3555                 2.4805                 6.4315
 Frc consts  --      0.4806                 0.9101                 2.4001
 IR Inten    --      5.6797                 0.0000                 4.2928

                     49                     50                     51
                     B1U                    B3U                    B1G
 Frequencies --    802.5189               805.1319               805.4272
 Red. masses --      7.3841                 3.2545                 1.8221
 Frc consts  --      2.8019                 1.2430                 0.6964
 IR Inten    --      0.7096                 0.4075                 0.0000

                     52                     53                     54
                     AU                     B2G                    AU
 Frequencies --    815.7840               822.4527               835.8875
 Red. masses --      4.5679                 2.2341                 1.9333
 Frc consts  --      1.7911                 0.8904                 0.7959
 IR Inten    --      0.0000                 0.0000                 0.0000

                     55                     56                     57
                     B3U                    B1G                    B3G
 Frequencies --    856.2406               864.7755               892.3766
 Red. masses --      1.6347                 1.6353                 5.7662
 Frc consts  --      0.7061                 0.7205                 2.7054
 IR Inten    --     72.1821                 0.0000                 0.0000

                     58                     59                     60
                     B2G                    B3G                    B3U
 Frequencies --    906.1553               908.7329               908.9141
 Red. masses --      1.5832                 6.4558                 1.6335
 Frc consts  --      0.7659                 3.1410                 0.7951
 IR Inten    --      0.0000                 0.0000                97.1451

                     61                     62                     63
                     AG                     B1U                    AU
 Frequencies --    929.4804               936.3024               970.6609
 Red. masses --      6.8353                 5.6727                 1.3228
 Frc consts  --      3.4793                 2.9301                 0.7343
 IR Inten    --      0.0000                 3.4867                 0.0000

                     64                     65                     66
                     B2G                    B1G                    B3U
 Frequencies --    971.6342               985.8124               987.6331
 Red. masses --      1.3373                 1.3308                 1.3448
 Frc consts  --      0.7438                 0.7620                 0.7729
 IR Inten    --      0.0000                 0.0000                 0.0416

                     67                     68                     69
                     AU                     B2G                    B2U
 Frequencies --    989.4857               990.9367               998.1047
 Red. masses --      1.3550                 1.3634                 4.4275
 Frc consts  --      0.7816                 0.7888                 2.5987
 IR Inten    --      0.0000                 0.0000                 3.1391

                     70                     71                     72
                     AG                     B2U                    B1U
 Frequencies --   1069.3781              1093.3125              1094.4336
 Red. masses --      4.9718                 2.5994                 4.3063
 Frc consts  --      3.3499                 1.8307                 3.0391
 IR Inten    --      0.0000                 0.9740                 1.1536

                     73                     74                     75
                     B3G                    B2U                    AG
 Frequencies --   1136.8041              1157.7247              1167.3246
 Red. masses --      2.7483                 1.4100                 1.4613
 Frc consts  --      2.0926                 1.1135                 1.1732
 IR Inten    --      0.0000                 0.4056                 0.0000

                     76                     77                     78
                     B3G                    AG                     B1U
 Frequencies --   1176.6825              1186.3356              1187.2345
 Red. masses --      1.3886                 1.3346                 1.2699
 Frc consts  --      1.1328                 1.1066                 1.0546
 IR Inten    --      0.0000                 0.0000                15.4099

                     79                     80                     81
                     B2U                    B3G                    B2U
 Frequencies --   1193.6265              1223.5549              1232.3707
 Red. masses --      1.7145                 1.6725                 2.0595
 Frc consts  --      1.4393                 1.4752                 1.8429
 IR Inten    --      4.0899                 0.0000                 0.5328

                     82                     83                     84
                     AG                     B1U                    B3G
 Frequencies --   1239.7765              1251.8722              1252.2273
 Red. masses --      2.6913                 1.8538                 1.7408
 Frc consts  --      2.4373                 1.7117                 1.6083
 IR Inten    --      0.0000                 0.0886                 0.0000

                     85                     86                     87
                     B2U                    AG                     B1U
 Frequencies --   1267.6580              1280.5729              1300.2841
 Red. masses --      2.1453                 4.3053                 2.8772
 Frc consts  --      2.0311                 4.1597                 2.8661
 IR Inten    --     14.3619                 0.0000                 3.7839

                     88                     89                     90
                     B1U                    B2U                    AG
 Frequencies --   1339.4590              1341.7985              1342.6616
 Red. masses --      4.7019                 3.7843                 3.6100
 Frc consts  --      4.9703                 4.0143                 3.8343
 IR Inten    --     14.9713                 3.5468                 0.0000

                     91                     92                     93
                     B3G                    AG                     AG
 Frequencies --   1345.0746              1385.1774              1393.6479
 Red. masses --      3.3472                 5.4397                 7.3487
 Frc consts  --      3.5680                 6.1494                 8.4095
 IR Inten    --      0.0000                 0.0000                 0.0000

                     94                     95                     96
                     B2U                    B3G                    B2U
 Frequencies --   1408.6405              1409.5560              1410.2294
 Red. masses --      8.4011                 8.7962                 3.5072
 Frc consts  --      9.8217                10.2970                 4.1095
 IR Inten    --      6.7972                 0.0000                 2.2701

                     97                     98                     99
                     B1U                    B2U                    B3G
 Frequencies --   1428.1267              1440.7408              1443.2063
 Red. masses --      4.1377                 6.7362                 3.2070
 Frc consts  --      4.9721                 8.2383                 3.9356
 IR Inten    --      0.9905                 7.9216                 0.0000

                    100                    101                    102
                     B3G                    B2U                    AG
 Frequencies --   1452.1346              1468.8433              1469.9675
 Red. masses --      1.8530                 2.1496                 9.5020
 Frc consts  --      2.3022                 2.7325                12.0971
 IR Inten    --      0.0000                 0.8786                 0.0000

                    103                    104                    105
                     B1U                    B1U                    AG
 Frequencies --   1475.3692              1483.5650              1498.4084
 Red. masses --      5.3080                 3.0599                 4.8782
 Frc consts  --      6.8074                 3.9680                 6.4532
 IR Inten    --      0.8465                 4.2737                 0.0000

                    106                    107                    108
                     AG                     B2U                    B3G
 Frequencies --   1517.6996              1525.7358              1540.9014
 Red. masses --      3.5490                 5.7917                 3.9297
 Frc consts  --      4.8164                 7.9436                 5.4974
 IR Inten    --      0.0000                 1.5851                 0.0000

                    109                    110                    111
                     B3G                    B1U                    B1U
 Frequencies --   1548.5545              1564.1630              1596.6317
 Red. masses --      6.3042                 3.8039                10.8420
 Frc consts  --      8.9070                 5.4833                16.2842
 IR Inten    --      0.0000                 3.8095                 0.0343

                    112                    113                    114
                     B2U                    B3G                    AG
 Frequencies --   1616.4160              1631.7747              1637.1363
 Red. masses --      5.2205                 6.0416                 8.1662
 Frc consts  --      8.0365                 9.4781                12.8956
 IR Inten    --      0.9464                 0.0000                 0.0000

                    115                    116                    117
                     B2U                    AG                     B3G
 Frequencies --   1647.6694              1650.2146              1653.5722
 Red. masses --      6.6493                 6.1267                 7.9854
 Frc consts  --     10.6357                 9.8301                12.8645
 IR Inten    --     12.5355                 0.0000                 0.0000

                    118                    119                    120
                     B1U                    B1U                    AG
 Frequencies --   1663.4097              3164.1025              3164.6104
 Red. masses --      6.9629                 1.0871                 1.0876
 Frc consts  --     11.3512                 6.4123                 6.4172
 IR Inten    --      7.5947                 0.4954                 0.0000

                    121                    122                    123
                     B3G                    B2U                    B1U
 Frequencies --   3164.7963              3165.9385              3166.4599
 Red. masses --      1.0863                 1.0864                 1.0878
 Frc consts  --      6.4106                 6.4155                 6.4262
 IR Inten    --      0.0000                 3.8808                18.8346

                    124                    125                    126
                     B3G                    AG                     B1U
 Frequencies --   3167.6035              3168.2807              3168.6790
 Red. masses --      1.0867                 1.0888                 1.0880
 Frc consts  --      6.4241                 6.4393                 6.4366
 IR Inten    --      0.0000                 0.0000                 3.1916

                    127                    128                    129
                     B2U                    AG                     B3G
 Frequencies --   3182.2730              3182.4967              3183.7164
 Red. masses --      1.0951                 1.0950                 1.0951
 Frc consts  --      6.5341                 6.5341                 6.5401
 IR Inten    --      2.3296                 0.0000                 0.0000

                    130                    131                    132
                     B1U                    B2U                    AG
 Frequencies --   3184.1520              3184.8206              3185.3666
 Red. masses --      1.0951                 1.0944                 1.0944
 Frc consts  --      6.5415                 6.5404                 6.5427
 IR Inten    --     95.4664               105.5358                 0.0000

 - Thermochemistry -
 -------------------
 Temperature   298.150 Kelvin.  Pressure   1.00000 Atm.
 Atom     1 has atomic number  6 and mass  12.00000

 Molecular mass:   398.10955 amu.
 Principal axes and moments of inertia in atomic units:
                           1         2         3
     Eigenvalues --  7530.56386********************
           X            0.00000   0.00000   1.00000
           Y            1.00000   0.00000   0.00000
           Z           -0.00000   1.00000  -0.00000
 This molecule is an asymmetric top.
 Rotational symmetry number  4.
 Warning -- assumption of classical behavior for rotation
           may cause significant error
 Rotational temperatures (Kelvin)      0.01150     0.00711     0.00439
 Rotational constants (GHZ):           0.23966     0.14806     0.09152
 Zero-point vibrational energy     922747.5 (Joules/Mol)
                                  220.54196 (Kcal/Mol)
 Warning -- explicit consideration of  33 degrees of freedom as
           vibrations may cause significant error
 Vibrational temperatures:     86.42    87.62   150.01   180.31   219.00
          (Kelvin)            278.09   304.87   369.63   388.53   405.80
                              459.79   470.26   471.25   481.83   492.43
                              495.67   576.11   614.80   623.41   627.01
                              661.44   691.66   697.73   722.60   733.35
                              766.32   788.23   791.54   795.74   816.35
                              832.99   846.78   848.60   896.78   916.18
                              930.49   942.46   963.85   964.37   993.99
                             1036.12  1038.30  1046.10  1092.67  1114.99
                             1116.14  1135.35  1145.07  1154.65  1158.41
                             1158.83  1173.73  1183.33  1202.66  1231.94
                             1244.22  1283.93  1303.76  1307.46  1307.72
                             1337.31  1347.13  1396.56  1397.96  1418.36
                             1420.98  1423.65  1425.74  1436.05  1538.60
                             1573.03  1574.65  1635.61  1665.71  1679.52
                             1692.98  1706.87  1708.17  1717.36  1760.42
                             1773.11  1783.76  1801.16  1801.68  1823.88
                             1842.46  1870.82  1927.18  1930.55  1931.79
                             1935.26  1992.96  2005.15  2026.72  2028.04
                             2029.01  2054.76  2072.90  2076.45  2089.30
                             2113.34  2114.96  2122.73  2134.52  2155.88
                             2183.63  2195.19  2217.01  2228.02  2250.48
                             2297.20  2325.66  2347.76  2355.47  2370.63
                             2374.29  2379.12  2393.28  4552.44  4553.17
                             4553.44  4555.08  4555.83  4557.47  4558.45
                             4559.02  4578.58  4578.90  4580.66  4581.28
                             4582.25  4583.03

 Zero-point correction=                           0.351456 (Hartree/Particle)
 Thermal correction to Energy=                    0.369815
 Thermal correction to Enthalpy=                  0.370759
 Thermal correction to Gibbs Free Energy=         0.308431
 Sum of electronic and zero-point Energies=          -1228.110369
 Sum of electronic and thermal Energies=             -1228.092010
 Sum of electronic and thermal Enthalpies=           -1228.091065
 Sum of electronic and thermal Free Energies=        -1228.153394

                     E (Thermal)             CV                S
                      KCal/Mol        Cal/Mol-Kelvin    Cal/Mol-Kelvin
 Total                  232.063             84.198            131.181
 Electronic               0.000              0.000              0.000
 Translational            0.889              2.981             43.836
 Rotational               0.889              2.981             33.092
 Vibrational            230.285             78.237             54.253
 Vibration     1          0.597              1.973              4.455
 Vibration     2          0.597              1.973              4.428
 Vibration     3          0.605              1.946              3.373
 Vibration     4          0.610              1.928              3.017
 Vibration     5          0.619              1.900              2.644
 Vibration     6          0.635              1.849              2.196
 Vibration     7          0.643              1.823              2.027
 Vibration     8          0.666              1.751              1.683
 Vibration     9          0.674              1.728              1.596
 Vibration    10          0.681              1.707              1.521
 Vibration    11          0.705              1.636              1.312
 Vibration    12          0.711              1.622              1.276
 Vibration    13          0.711              1.620              1.272
 Vibration    14          0.716              1.606              1.236
 Vibration    15          0.721              1.591              1.202
 Vibration    16          0.723              1.586              1.191
 Vibration    17          0.766              1.469              0.961
 Vibration    18          0.789              1.411              0.867
 Vibration    19          0.794              1.398              0.848
 Vibration    20          0.796              1.392              0.840
 Vibration    21          0.818              1.339              0.767
 Vibration    22          0.837              1.293              0.708
 Vibration    23          0.841              1.283              0.697
 Vibration    24          0.858              1.245              0.653
 Vibration    25          0.865              1.228              0.634
 Vibration    26          0.888              1.178              0.581
 Vibration    27          0.903              1.144              0.549
 Vibration    28          0.905              1.139              0.544
 Vibration    29          0.908              1.133              0.538
 Vibration    30          0.923              1.102              0.509
 Vibration    31          0.936              1.077              0.487
 Vibration    32          0.946              1.056              0.470
 Vibration    33          0.947              1.054              0.468

 Optimization completed.
    -- Stationary point found.
 Normal termination of Gaussian 16 at Tue Feb  7 19:30:25 2023.
