 Gaussian 16, Revision A.03,
 Gaussian 16:  ES64L-G16RevA.03 25-Dec-2016

 ----------------------------------------------------------------------
 # opt=tight freq=(hpmodes,savenm) td=(nstates=6,root=1) b3lyp/6-311++g
 (2d,2p) geom=connectivity empiricaldispersion=gd3bj
 ----------------------------------------------------------------------

 ------------------------------------------------------------------
 Ovalene excited state optimization+freq with dispersion correction
 ------------------------------------------------------------------
 Symbolic Z-matrix:
 Charge =  0 Multiplicity = 1

 SCF Done:  E(RB3LYP) =  -1228.45780860     A.U. after   13 cycles
 Total Energy, E(TD-HF/TD-DFT) =  -1228.36692756
 SCF Done:  E(RB3LYP) =  -1228.45799169     A.U. after    8 cycles
 Total Energy, E(TD-HF/TD-DFT) =  -1228.36696166
 SCF Done:  E(RB3LYP) =  -1228.45797075     A.U. after    6 cycles
 Total Energy, E(TD-HF/TD-DFT) =  -1228.36696242
 SCF Done:  E(RB3LYP) =  -1228.45797267     A.U. after    5 cycles
 Total Energy, E(TD-HF/TD-DFT) =  -1228.36696243
 Optimization completed.
    -- Stationary point found.
 Normal termination of Gaussian 16 at Tue Feb  7 13:40:34 2023.

 ----------------------------------------------------------------------
 #N Geom=AllCheck Guess=TCheck SCRF=Check GenChk RB3LYP TD(FC,Read)/6-3
 11++G(2d,2p) Freq
 ----------------------------------------------------------------------

 Structure from the checkpoint file:  "ovalene excited opt freq disp.chk"
 ------------------------------------------------------------------
 Ovalene excited state optimization+freq with dispersion correction
 ------------------------------------------------------------------
 Charge =  0 Multiplicity = 1

                         Standard orientation:
 ---------------------------------------------------------------------
 Center     Atomic      Atomic             Coordinates (Angstroms)
 Number     Number       Type             X           Y           Z
 ---------------------------------------------------------------------
      1          6           0        0.000000    2.459141    0.710922
      2          6           0        0.000000    1.234188    1.417801
      3          6           0        0.000000   -0.000000    0.706906
      4          6           0        0.000000   -0.000000   -0.706906
      5          6           0        0.000000    1.234188   -1.417801
      6          6           0        0.000000    2.459141   -0.710922
      7          6           0       -0.000000   -1.234188    1.417801
      8          6           0       -0.000000   -1.234188   -1.417801
      9          6           0       -0.000000   -2.459141   -0.710922
     10          6           0       -0.000000   -2.459141    0.710922
     11          6           0       -0.000000   -3.695228   -1.423292
     12          6           0       -0.000000   -3.666194   -2.831689
     13          6           0       -0.000000   -2.476276   -3.524155
     14          6           0       -0.000000   -1.228706   -2.844683
     15          6           0       -0.000000    0.000000   -3.524058
     16          6           0        0.000000    1.228706   -2.844683
     17          1           0       -0.000000    0.000000   -4.606434
     18          1           0       -0.000000   -4.603542   -3.371816
     19          1           0       -0.000000   -2.478594   -4.605587
     20          6           0        0.000000    1.228706    2.844683
     21          6           0       -0.000000    0.000000    3.524058
     22          6           0       -0.000000   -1.228706    2.844683
     23          1           0       -0.000000    0.000000    4.606434
     24          6           0       -0.000000   -2.476276    3.524155
     25          6           0       -0.000000   -3.666194    2.831689
     26          6           0       -0.000000   -3.695228    1.423292
     27          1           0       -0.000000   -2.478594    4.605587
     28          1           0       -0.000000   -4.603542    3.371816
     29          6           0       -0.000000   -4.917728   -0.680683
     30          1           0       -0.000000   -5.851673   -1.226318
     31          6           0       -0.000000   -4.917728    0.680683
     32          1           0       -0.000000   -5.851673    1.226318
     33          6           0        0.000000    2.476276   -3.524155
     34          6           0        0.000000    3.666194   -2.831689
     35          1           0        0.000000    4.603542   -3.371816
     36          6           0        0.000000    3.695228   -1.423292
     37          1           0        0.000000    2.478594   -4.605587
     38          6           0        0.000000    4.917728   -0.680683
     39          1           0        0.000000    5.851673   -1.226318
     40          6           0        0.000000    3.695228    1.423292
     41          6           0        0.000000    2.476276    3.524155
     42          6           0        0.000000    3.666194    2.831689
     43          1           0        0.000000    4.603542    3.371816
     44          6           0        0.000000    4.917728    0.680683
     45          1           0        0.000000    5.851673    1.226318
     46          1           0        0.000000    2.478594    4.605587
 ---------------------------------------------------------------------

 SCF Done:  E(RB3LYP) =  -1228.45797267     A.U. after    1 cycles

 Excitation energies and oscillator strengths:

 Excited State   1:      Singlet-B1U    2.4765 eV  500.64 nm  f=0.1848  <S**2>=0.000
     102 ->105        -0.13396
     103 ->104         0.69121
 This state for optimization and/or second-order correction.
 Total Energy, E(TD-HF/TD-DFT) =  -1228.36696243
 Copying the excited state density for this state as the 1-particle RhoCI density.

 Excited State   2:      Singlet-B2U    2.7688 eV  447.79 nm  f=0.0000  <S**2>=0.000
     102 ->104         0.49925
     103 ->105         0.49815

 Excited State   3:      Singlet-B3G    3.2042 eV  386.95 nm  f=0.0000  <S**2>=0.000
     101 ->104        -0.22176
     103 ->106         0.66582

 Excited State   4:      Singlet-B3G    3.3484 eV  370.28 nm  f=0.0000  <S**2>=0.000
     101 ->104         0.66390
     103 ->106         0.21874

 Excited State   5:      Singlet-AG     3.4784 eV  356.44 nm  f=0.0000  <S**2>=0.000
     100 ->104        -0.17659
     103 ->107         0.67573

 Excited State   6:      Singlet-B2U    3.6242 eV  342.10 nm  f=1.0524  <S**2>=0.000
     100 ->106         0.11161
     101 ->107         0.11846
     102 ->104        -0.48199
     103 ->105         0.48345

 The electronic state is 1-AG.
 Alpha  occ. eigenvalues --  -10.19295 -10.19248 -10.19155 -10.19154 -10.19150
 Alpha  occ. eigenvalues --  -10.19147 -10.19138 -10.19137 -10.19128 -10.19127
 Alpha  occ. eigenvalues --  -10.19102 -10.19102 -10.19102 -10.19098 -10.19076
 Alpha  occ. eigenvalues --  -10.19073 -10.19049 -10.19047 -10.18257 -10.18256
 Alpha  occ. eigenvalues --  -10.18254 -10.18253 -10.18253 -10.18252 -10.18213
 Alpha  occ. eigenvalues --  -10.18213 -10.18180 -10.18180 -10.18179 -10.18179
 Alpha  occ. eigenvalues --  -10.18141 -10.18141  -0.92018  -0.89598  -0.88465
 Alpha  occ. eigenvalues --   -0.85893  -0.85689  -0.83045  -0.81780  -0.81186
 Alpha  occ. eigenvalues --   -0.79627  -0.77172  -0.76258  -0.76254  -0.74623
 Alpha  occ. eigenvalues --   -0.73312  -0.72514  -0.70454  -0.65598  -0.64950
 Alpha  occ. eigenvalues --   -0.64897  -0.64410  -0.63951  -0.62707  -0.58742
 Alpha  occ. eigenvalues --   -0.58129  -0.57623  -0.55674  -0.54543  -0.54310
 Alpha  occ. eigenvalues --   -0.54085  -0.50771  -0.50168  -0.48931  -0.48897
 Alpha  occ. eigenvalues --   -0.48799  -0.47760  -0.46431  -0.45137  -0.44349
 Alpha  occ. eigenvalues --   -0.44134  -0.43913  -0.43883  -0.43168  -0.42655
 Alpha  occ. eigenvalues --   -0.42510  -0.41987  -0.41307  -0.40704  -0.40079
 Alpha  occ. eigenvalues --   -0.39976  -0.39836  -0.39069  -0.37511  -0.37446
 Alpha  occ. eigenvalues --   -0.37101  -0.36739  -0.36411  -0.35534  -0.35010
 Alpha  occ. eigenvalues --   -0.34071  -0.32265  -0.32147  -0.32144  -0.31722
 Alpha  occ. eigenvalues --   -0.30099  -0.27225  -0.26788  -0.26678  -0.24964
 Alpha  occ. eigenvalues --   -0.23557  -0.21861  -0.18814
 Alpha virt. eigenvalues --   -0.09071  -0.05975  -0.04629  -0.03747  -0.02205
 Alpha virt. eigenvalues --   -0.01955  -0.00930  -0.00852  -0.00426  -0.00306
 Alpha virt. eigenvalues --    0.00603   0.00645   0.01893   0.01997   0.02039

 Mulliken charges:
               1
     1  C   -0.132204
     2  C   -0.134726
     3  C   -0.093681
     4  C   -0.093681
     5  C   -0.134726
     6  C   -0.132204
     7  C   -0.134726
     8  C   -0.134726
     9  C   -0.132204
    10  C   -0.132204
    11  C    0.344117
    12  C   -0.180594
    13  C   -0.286888
    14  C    0.386550
    15  C   -0.144120
    16  C    0.386550
    17  H    0.037658
    18  H    0.098242
    19  H    0.107715
    20  C    0.386550
    21  C   -0.144120
    22  C    0.386550
    23  H    0.037658
    24  C   -0.286888
    25  C   -0.180594
    26  C    0.344117
    27  H    0.107715
    28  H    0.098242
    29  C   -0.196054
    30  H    0.093913
    31  C   -0.196054
    32  H    0.093913
    33  C   -0.286888
    34  C   -0.180594
    35  H    0.098242
    36  C    0.344117
    37  H    0.107715
    38  C   -0.196054
    39  H    0.093913
    40  C    0.344117
    41  C   -0.286888
    42  C   -0.180594
    43  H    0.098242
    44  C   -0.196054
    45  H    0.093913
    46  H    0.107715
 Sum of Mulliken charges =  -0.00000

 Dipole moment (field-independent basis, Debye):
    X=              0.0000    Y=             -0.0000    Z=             -0.0000  Tot=              0.0000
 Quadrupole moment (field-independent basis, Debye-Ang):
   XX=           -191.0179   YY=           -157.2531   ZZ=           -158.4948
   XY=              0.0000   XZ=             -0.0000   YZ=              0.0000

  Exact polarizability: 159.403   0.000 928.323  -0.000   0.000 586.753
 Approx polarizability: 289.312   0.0001270.973  -0.000   0.0001155.411

                      1                      2                      3
                     B3G                    B3G                    B3G
 Frequencies --     59.0938                59.4090               100.9060
 Red. masses --      5.6756                 5.4841                 5.1184
 Frc consts  --      0.0117                 0.0114                 0.0307
 IR Inten    --      0.6101                 0.0001                 4.2487

                      4                      5                      6
                     B1G                    B2G                    ?A
 Frequencies --    118.8119               150.0419               190.3209
 Red. masses --      4.6253                 5.2409                 5.3791
 Frc consts  --      0.0385                 0.0695                 0.1148
 IR Inten    --      0.0000                 0.0000                 0.0000

                      7                      8                      9
                     ?A                     AU                     B2G
 Frequencies --    203.1767               250.1884               258.5970
 Red. masses --      4.2999                 4.7605                 4.7391
 Frc consts  --      0.1046                 0.1756                 0.1867
 IR Inten    --      0.3796                 0.0000                 0.0000

                     10                     11                     12
                     B1U                    B3G                    B1G
 Frequencies --    278.4893               315.5704               319.0102
 Red. masses --      5.8865                 8.5274                 4.6379
 Frc consts  --      0.2690                 0.5003                 0.2781
 IR Inten    --     10.7623                 0.0000                 0.0000

                     13                     14                     15
                     AG                     ?B                     ?B
 Frequencies --    323.6511               327.9751               329.4994
 Red. masses --      8.6368                 4.1786                 5.2419
 Frc consts  --      0.5330                 0.2648                 0.3353
 IR Inten    --      0.0000                 0.0000                 6.4072

                     16                     17                     18
                     AU                     B2U                    B3U
 Frequencies --    332.0203               397.9707               410.9405
 Red. masses --      5.4421                 6.3614                 3.7985
 Frc consts  --      0.3535                 0.5936                 0.3779
 IR Inten    --      0.0000                54.3600                 0.0121

                     19                     20                     21
                     B2U                    AG                     AG
 Frequencies --    425.0896               426.8704               456.3761
 Red. masses --      7.2037                 5.8516                 6.5169
 Frc consts  --      0.7669                 0.6282                 0.7997
 IR Inten    --     21.3085                 0.0000                 0.0000

                     22                     23                     24
                     AU                     B3G                    ?C
 Frequencies --    472.6316               480.0378               481.6082
 Red. masses --      3.7872                 5.0662                 3.3378
 Frc consts  --      0.4984                 0.6878                 0.4561
 IR Inten    --      0.0000                 0.0000                 0.0000

                     25                     26                     27
                     B1U                    ?C                     ?C
 Frequencies --    492.9984               510.3390               536.6775
 Red. masses --      6.0450                 4.4694                 3.6394
 Frc consts  --      0.8656                 0.6858                 0.6176
 IR Inten    --      3.1092                 0.0000                14.6686

                     28                     29                     30
                     B2U                    B3G                    ?C
 Frequencies --    546.0603               546.3618               562.9645
 Red. masses --      5.4132                 5.2714                 4.6834
 Frc consts  --      0.9510                 0.9271                 0.8745
 IR Inten    --      1.8210                 0.0000                 0.0002

                     31                     32                     33
                     B1G                    ?D                     ?D
 Frequencies --    570.6533               584.5746               584.8241
 Red. masses --      3.5768                 5.0819                 6.6593
 Frc consts  --      0.6863                 1.0232                 1.3419
 IR Inten    --      0.0001                 0.0019                 0.0000

                     34                     35                     36
                     ?C                     ?C                     ?C
 Frequencies --    609.1857               614.0099               627.1371
 Red. masses --      4.9320                 5.4466                 3.5621
 Frc consts  --      1.0784                 1.2098                 0.8254
 IR Inten    --      0.0003                 0.0011                31.3459

                     37                     38                     39
                     B3G                    ?C                     B1U
 Frequencies --    655.3338               666.5769               667.5197
 Red. masses --      8.2750                 3.6579                 7.1720
 Frc consts  --      2.0938                 0.9576                 1.8829
 IR Inten    --      0.0000                 0.0001                 0.0918

                     40                     41                     42
                     B2U                    B2G                    B1U
 Frequencies --    683.2166               709.0123               718.5284
 Red. masses --      8.1914                 4.0645                 7.4720
 Frc consts  --      2.2528                 1.2038                 2.2729
 IR Inten    --     11.9052                 0.0000                 1.3142

                     43                     44                     45
                     B3G                    B1G                    ?E
 Frequencies --    721.1789               741.0165               761.3308
 Red. masses --      5.1631                 2.2827                 1.3537
 Frc consts  --      1.5821                 0.7385                 0.4623
 IR Inten    --      0.0000                 0.0000                 4.0139

                     46                     47                     48
                     AG                     ?E                     B2U
 Frequencies --    762.0146               771.0668               784.5803
 Red. masses --      6.2044                 2.2076                 6.2893
 Frc consts  --      2.1226                 0.7733                 2.2810
 IR Inten    --      0.0000                 0.0001                 5.1379

                     49                     50                     51
                     ?E                     ?E                     B1U
 Frequencies --    786.3999               792.5640               795.3095
 Red. masses --      2.6913                 2.0118                 7.3513
 Frc consts  --      0.9806                 0.7446                 2.7396
 IR Inten    --      0.5352                 0.0001                 0.8597

                     52                     53                     54
                     ?E                     ?E                     AU
 Frequencies --    803.0472               804.2659               824.2800
 Red. masses --      6.1264                 2.2269                 1.6907
 Frc consts  --      2.3278                 0.8487                 0.6768
 IR Inten    --      0.0000                 0.0000                 0.0000

                     55                     56                     57
                     B3U                    B1G                    B3G
 Frequencies --    831.3387               844.2213               882.5834
 Red. masses --      1.7186                 1.6010                 5.6525
 Frc consts  --      0.6998                 0.6723                 2.5942
 IR Inten    --     61.9975                 0.0000                 0.0000

                     58                     59                     60
                     ?B                     ?B                     B3G
 Frequencies --    882.9077               887.3172               911.1840
 Red. masses --      1.6750                 1.7407                 6.2590
 Frc consts  --      0.7693                 0.8075                 3.0617
 IR Inten    --      0.0022               115.7347                 0.0000

                     61                     62                     63
                     AG                     B1U                    AU
 Frequencies --    913.8076               934.3833               953.6620
 Red. masses --      7.3011                 5.8050                 1.3265
 Frc consts  --      3.5921                 2.9861                 0.7108
 IR Inten    --      0.0000                 0.2556                 0.0000

                     64                     65                     66
                     B2G                    ?A                     ?A
 Frequencies --    955.8004               959.4852               961.9005
 Red. masses --      1.3485                 1.3693                 1.3829
 Frc consts  --      0.7259                 0.7427                 0.7539
 IR Inten    --      0.0000                 0.0000                 0.1765

                     67                     68                     69
                     AU                     B2G                    B2U
 Frequencies --    977.1347               977.3380               991.3688
 Red. masses --      1.3603                 1.3640                 4.6189
 Frc consts  --      0.7652                 0.7676                 2.6746
 IR Inten    --      0.0000                 0.0000               105.2268

                     70                     71                     72
                     AG                     B1U                    B2U
 Frequencies --   1070.2389              1075.3774              1089.2649
 Red. masses --      4.5983                 4.2591                 2.4370
 Frc consts  --      3.1032                 2.9020                 1.7036
 IR Inten    --      0.0000                 4.0188                20.8418

                     73                     74                     75
                     B3G                    B3G                    B2U
 Frequencies --   1136.9231              1153.3766              1166.1002
 Red. masses --      2.3147                 1.6647                 1.2981
 Frc consts  --      1.7628                 1.3047                 1.0400
 IR Inten    --      0.0000                 0.0000                11.2938

                     76                     77                     78
                     AG                     B1U                    AG
 Frequencies --   1168.3266              1172.9340              1181.0180
 Red. masses --      1.4626                 1.3260                 1.3715
 Frc consts  --      1.1762                 1.0749                 1.1271
 IR Inten    --      0.0000                16.8763                 0.0000

                     79                     80                     81
                     B2U                    B3G                    B3G
 Frequencies --   1200.4285              1215.2643              1238.0071
 Red. masses --      1.5451                 1.9020                 1.8674
 Frc consts  --      1.3119                 1.6550                 1.6863
 IR Inten    --     61.8512                 0.0000                 0.0000

                     82                     83                     84
                     B2U                    B1U                    AG
 Frequencies --   1242.9089              1247.3640              1251.7180
 Red. masses --      2.9628                 2.0785                 2.5487
 Frc consts  --      2.6967                 1.9054                 2.3528
 IR Inten    --      0.5205                 0.0379                 0.0000

                     85                     86                     87
                     B2U                    AG                     B1U
 Frequencies --   1252.8271              1268.9865              1290.4305
 Red. masses --      1.9940                 3.4175                 3.1303
 Frc consts  --      1.8440                 3.2424                 3.0712
 IR Inten    --     33.8742                 0.0000                 9.6529

                     88                     89                     90
                     ?F                     ?F                     B3G
 Frequencies --   1314.6190              1319.0450              1347.6901
 Red. masses --      5.7707                 4.7919                 3.2575
 Frc consts  --      5.8759                 4.9123                 3.4859
 IR Inten    --    169.6606                29.7029                 0.0000

                     91                     92                     93
                     AG                     B1U                    AG
 Frequencies --   1349.3030              1354.6807              1383.4640
 Red. masses --      3.8197                 6.3868                10.7819
 Frc consts  --      4.0973                 6.9057                12.1585
 IR Inten    --      0.0000                12.2482                 0.0000

                     94                     95                     96
                     ?G                     ?G                     ?G
 Frequencies --   1391.1130              1391.7930              1394.0987
 Red. masses --      9.6951                 6.2958                 7.1008
 Frc consts  --     11.0543                 7.1854                 8.1311
 IR Inten    --      0.0000                 1.1882                 0.0000

                     97                     98                     99
                     B2U                    B3G                    ?H
 Frequencies --   1402.4015              1421.6731              1446.2627
 Red. masses --      3.7060                 3.4931                 6.7136
 Frc consts  --      4.2944                 4.1597                 8.2737
 IR Inten    --      6.5398                 0.0000                24.0962

                    100                    101                    102
                     ?H                     AG                     ?H
 Frequencies --   1446.5570              1451.3617              1454.0589
 Red. masses --      1.6024                 5.6371                 3.4970
 Frc consts  --      1.9755                 6.9962                 4.3562
 IR Inten    --      0.0001                 0.0000                 5.0213

                    103                    104                    105
                     B1U                    B2U                    ?H
 Frequencies --   1464.5382              1468.2944              1497.3408
 Red. masses --      2.4202                 2.5398                 6.0480
 Frc consts  --      3.0585                 3.2261                 7.9891
 IR Inten    --      0.7116               101.1759                 0.0000

                    106                    107                    108
                     ?H                     ?H                     B3G
 Frequencies --   1498.5424              1499.8264              1529.2802
 Red. masses --      3.2495                 4.0879                 5.2681
 Frc consts  --      4.2994                 5.4179                 7.2590
 IR Inten    --      0.0002                 4.3997                 0.0000

                    109                    110                    111
                     AG                     B1U                    B1U
 Frequencies --   1531.2636              1537.5483              1573.6533
 Red. masses --      3.5851                 4.1724                 7.0203
 Frc consts  --      4.9528                 5.8116                10.2429
 IR Inten    --      0.0000                 0.1892                 9.9509

                    112                    113                    114
                     B3G                    B2U                    B3G
 Frequencies --   1578.9938              1583.6788              1596.9272
 Red. masses --      9.7321                 4.7228                 5.0107
 Frc consts  --     14.2960                 6.9789                 7.5286
 IR Inten    --      0.0000                 1.3545                 0.0000

                    115                    116                    117
                     B2U                    B1U                    AG
 Frequencies --   1623.3205              1625.3470              1628.4754
 Red. masses --      5.9116                 7.1087                 5.7617
 Frc consts  --      9.1783                11.0646                 9.0026
 IR Inten    --     44.6144                14.2451                 0.0000

                    118                    119                    120
                     AG                     B1U                    AG
 Frequencies --   1635.2367              3165.7326              3166.0518
 Red. masses --      8.4041                 1.0870                 1.0876
 Frc consts  --     13.2404                 6.4186                 6.4231
 IR Inten    --      0.0000                 0.8175                 0.0000

                    121                    122                    123
                     B3G                    B2U                    B1U
 Frequencies --   3166.3811              3167.5284              3167.7013
 Red. masses --      1.0862                 1.0864                 1.0876
 Frc consts  --      6.4163                 6.4221                 6.4301
 IR Inten    --      0.0000                63.5359                13.5155

                    124                    125                    126
                     B3G                    AG                     B1U
 Frequencies --   3169.0000              3169.5523              3170.1545
 Red. masses --      1.0863                 1.0885                 1.0876
 Frc consts  --      6.4275                 6.4426                 6.4399
 IR Inten    --      0.0000                 0.0000                 4.6516

                    127                    128                    129
                     B2U                    AG                     B3G
 Frequencies --   3184.0168              3184.4639              3185.0148
 Red. masses --      1.0945                 1.0947                 1.0938
 Frc consts  --      6.5375                 6.5403                 6.5377
 IR Inten    --      8.2763                 0.0000                 0.0000

                    130                    131                    132
                     B1U                    B2U                    AG
 Frequencies --   3185.5224              3186.4354              3187.0156
 Red. masses --      1.0938                 1.0942                 1.0942
 Frc consts  --      6.5394                 6.5460                 6.5478
 IR Inten    --     82.8312               133.2925                 0.0000

 - Thermochemistry -
 -------------------
 Temperature   298.150 Kelvin.  Pressure   1.00000 Atm.
 Atom     1 has atomic number  6 and mass  12.00000

 Molecular mass:   398.10955 amu.
 Principal axes and moments of inertia in atomic units:
                           1         2         3
     Eigenvalues --  7498.89529********************
           X            0.00000   0.00000   1.00000
           Y            1.00000   0.00000  -0.00000
           Z           -0.00000   1.00000   0.00000
 This molecule is an asymmetric top.
 Rotational symmetry number  4.
 Warning -- assumption of classical behavior for rotation
           may cause significant error
 Rotational temperatures (Kelvin)      0.01155     0.00705     0.00438
 Rotational constants (GHZ):           0.24067     0.14692     0.09123
 Zero-point vibrational energy     914438.6 (Joules/Mol)
                                  218.55608 (Kcal/Mol)
 Warning -- explicit consideration of  35 degrees of freedom as
           vibrations may cause significant error
 Vibrational temperatures:     85.02    85.48   145.18   170.94   215.88
          (Kelvin)            273.83   292.33   359.97   372.06   400.68
                              454.04   458.98   465.66   471.88   474.08
                              477.70   572.59   591.25   611.61   614.17
                              656.62   680.01   690.67   692.93   709.31
                              734.26   772.16   785.66   786.09   809.98
                              821.04   841.07   841.43   876.48   883.42
                              902.31   942.88   959.06   960.41   983.00
                             1020.11  1033.80  1037.62  1066.16  1095.39
                             1096.37  1109.39  1128.84  1131.45  1140.32
                             1144.27  1155.41  1157.16  1185.96  1196.11
                             1214.65  1269.84  1270.31  1276.65  1310.99
                             1314.77  1344.37  1372.11  1375.18  1380.49
                             1383.96  1405.88  1406.17  1426.36  1539.84
                             1547.23  1567.21  1635.78  1659.45  1677.76
                             1680.96  1687.59  1699.22  1727.15  1748.49
                             1781.22  1788.27  1794.68  1800.94  1802.54
                             1825.79  1856.64  1891.44  1897.81  1939.03
                             1941.35  1949.08  1990.50  2001.50  2002.48
                             2005.80  2017.74  2045.47  2080.85  2081.27
                             2088.19  2092.07  2107.14  2112.55  2154.34
                             2156.07  2157.92  2200.29  2203.15  2212.19
                             2264.14  2271.82  2278.56  2297.62  2335.60
                             2338.51  2343.01  2352.74  4554.78  4555.24
                             4555.72  4557.37  4557.62  4559.48  4560.28
                             4561.15  4581.09  4581.73  4582.53  4583.26
                             4584.57  4585.40

 Zero-point correction=                           0.348291 (Hartree/Particle)
 Thermal correction to Energy=                    0.367048
 Thermal correction to Enthalpy=                  0.367993
 Thermal correction to Gibbs Free Energy=         0.304910
 Sum of electronic and zero-point Energies=          -1228.018671
 Sum of electronic and thermal Energies=             -1227.999914
 Sum of electronic and thermal Enthalpies=           -1227.998970
 Sum of electronic and thermal Free Energies=        -1228.062052

                     E (Thermal)             CV                S
                      KCal/Mol        Cal/Mol-Kelvin    Cal/Mol-Kelvin
 Total                  230.326             85.660            132.769
 Electronic               0.000              0.000              0.000
 Translational            0.889              2.981             43.836
 Rotational               0.889              2.981             33.099
 Vibrational            228.549             79.698             55.834
 Vibration     1          0.596              1.974              4.487
 Vibration     2          0.597              1.974              4.477
 Vibration     3          0.604              1.948              3.437
 Vibration     4          0.609              1.934              3.120
 Vibration     5          0.618              1.903              2.672
 Vibration     6          0.634              1.853              2.225
 Vibration     7          0.639              1.835              2.104
 Vibration     8          0.663              1.762              1.729
 Vibration     9          0.667              1.748              1.671
 Vibration    10          0.679              1.713              1.543
 Vibration    11          0.703              1.644              1.333
 Vibration    12          0.705              1.637              1.315
 Vibration    13          0.708              1.628              1.292
 Vibration    14          0.711              1.620              1.270
 Vibration    15          0.712              1.617              1.263
 Vibration    16          0.714              1.612              1.250
 Vibration    17          0.764              1.474              0.970
 Vibration    18          0.775              1.446              0.923
 Vibration    19          0.787              1.416              0.875
 Vibration    20          0.789              1.412              0.869
 Vibration    21          0.815              1.347              0.777
 Vibration    22          0.829              1.311              0.730
 Vibration    23          0.836              1.294              0.710
 Vibration    24          0.838              1.291              0.706
 Vibration    25          0.849              1.266              0.676
 Vibration    26          0.865              1.227              0.633
 Vibration    27          0.892              1.169              0.572
 Vibration    28          0.901              1.148              0.552
 Vibration    29          0.902              1.148              0.552
 Vibration    30          0.919              1.111              0.518
 Vibration    31          0.927              1.095              0.503
 Vibration    32          0.942              1.065              0.477
 Vibration    33          0.942              1.064              0.477
 Vibration    34          0.968              1.012              0.434
 Vibration    35          0.973              1.002              0.426

 Optimization completed.
    -- Stationary point found.
 Normal termination of Gaussian 16 at Tue Feb  7 19:36:46 2023.
