 Gaussian 16, Revision A.03,
 Gaussian 16:  ES64L-G16RevA.03 25-Dec-2016

 ----------------------------------------------------------------------
 # opt=tight freq=(savenormalmodes,hpmodes) td=(nstates=12,root=5) b3ly
 p/6-311++g(2d,2p) geom=connectivity empiricaldispersion=gd3bj
 ----------------------------------------------------------------------

 -----------------------------------------
 Ovalene excited state optimization + freq
 -----------------------------------------
 Symbolic Z-matrix:
 Charge =  0 Multiplicity = 1

 SCF Done:  E(RB3LYP) =  -1228.45992078     A.U. after   13 cycles
 Total Energy, E(TD-HF/TD-DFT) =  -1228.32892078
 SCF Done:  E(RB3LYP) =  -1228.45917312     A.U. after   10 cycles
 Total Energy, E(TD-HF/TD-DFT) =  -1228.33232791
 SCF Done:  E(RB3LYP) =  -1228.45841094     A.U. after   10 cycles
 Total Energy, E(TD-HF/TD-DFT) =  -1228.33267176
 SCF Done:  E(RB3LYP) =  -1228.45828339     A.U. after    8 cycles
 Total Energy, E(TD-HF/TD-DFT) =  -1228.33268583
 SCF Done:  E(RB3LYP) =  -1228.45828607     A.U. after    7 cycles
 Total Energy, E(TD-HF/TD-DFT) =  -1228.33268675
 SCF Done:  E(RB3LYP) =  -1228.45828405     A.U. after    5 cycles
 Total Energy, E(TD-HF/TD-DFT) =  -1228.33268681
 Optimization completed.
    -- Stationary point found.
 Normal termination of Gaussian 16 at Thu Mar  2 17:07:34 2023.

 ----------------------------------------------------------------------
 #N Geom=AllCheck Guess=TCheck SCRF=Check GenChk RB3LYP TD(FC,Read)/6-3
 11++G(2d,2p) Freq
 ----------------------------------------------------------------------

 Structure from the checkpoint file:  "ovalene-excited-5-opt-freq-disp.chk"
 -----------------------------------------
 Ovalene excited state optimization + freq
 -----------------------------------------
 Charge =  0 Multiplicity = 1

                         Standard orientation:
 ---------------------------------------------------------------------
 Center     Atomic      Atomic             Coordinates (Angstroms)
 Number     Number       Type             X           Y           Z
 ---------------------------------------------------------------------
      1          6           0       -0.000000    2.456125    0.721758
      2          6           0       -0.000000    1.229484    1.422782
      3          6           0       -0.000000    0.000000    0.724950
      4          6           0        0.000000   -0.000000   -0.724950
      5          6           0        0.000000    1.229484   -1.422782
      6          6           0        0.000000    2.456125   -0.721758
      7          6           0       -0.000000   -1.229484    1.422782
      8          6           0       -0.000000   -1.229484   -1.422782
      9          6           0       -0.000000   -2.456125   -0.721758
     10          6           0       -0.000000   -2.456125    0.721758
     11          6           0        0.000000   -3.686086   -1.423805
     12          6           0        0.000000   -3.671862   -2.840358
     13          6           0        0.000000   -2.478772   -3.527309
     14          6           0        0.000000   -1.232198   -2.847355
     15          6           0        0.000000    0.000000   -3.526098
     16          6           0        0.000000    1.232198   -2.847355
     17          1           0        0.000000    0.000000   -4.608989
     18          1           0        0.000000   -4.610895   -3.375925
     19          1           0        0.000000   -2.477990   -4.609290
     20          6           0        0.000000    1.232198    2.847355
     21          6           0       -0.000000    0.000000    3.526098
     22          6           0       -0.000000   -1.232198    2.847355
     23          1           0       -0.000000    0.000000    4.608989
     24          6           0       -0.000000   -2.478772    3.527309
     25          6           0       -0.000000   -3.671862    2.840358
     26          6           0       -0.000000   -3.686086    1.423805
     27          1           0       -0.000000   -2.477990    4.609290
     28          1           0       -0.000000   -4.610895    3.375925
     29          6           0        0.000000   -4.904537   -0.684797
     30          1           0        0.000000   -5.838877   -1.229486
     31          6           0       -0.000000   -4.904537    0.684797
     32          1           0       -0.000000   -5.838877    1.229486
     33          6           0        0.000000    2.478772   -3.527309
     34          6           0        0.000000    3.671862   -2.840358
     35          1           0        0.000000    4.610895   -3.375925
     36          6           0        0.000000    3.686086   -1.423805
     37          1           0        0.000000    2.477990   -4.609290
     38          6           0        0.000000    4.904537   -0.684797
     39          1           0        0.000000    5.838877   -1.229486
     40          6           0        0.000000    3.686086    1.423805
     41          6           0        0.000000    2.478772    3.527309
     42          6           0        0.000000    3.671862    2.840358
     43          1           0        0.000000    4.610895    3.375925
     44          6           0        0.000000    4.904537    0.684797
     45          1           0        0.000000    5.838877    1.229486
     46          1           0        0.000000    2.477990    4.609290
 ---------------------------------------------------------------------

 SCF Done:  E(RB3LYP) =  -1228.45828405     A.U. after    1 cycles

 Excitation energies and oscillator strengths:

 Excited State   1:      Singlet-B1U    2.5524 eV  485.75 nm  f=0.1778  <S**2>=0.000
     102 ->105        -0.14463
     103 ->104         0.68914

 Excited State   2:      Singlet-B2U    2.7905 eV  444.31 nm  f=0.0000  <S**2>=0.000
     102 ->104         0.49589
     103 ->105         0.50139

 Excited State   3:      Singlet-B3G    3.2802 eV  377.98 nm  f=0.0000  <S**2>=0.000
     101 ->104        -0.15841
     103 ->106         0.68357

 Excited State   4:      Singlet-B3G    3.4483 eV  359.55 nm  f=0.0000  <S**2>=0.000
     101 ->104        -0.68084
     103 ->106        -0.15623

 Excited State   5:      Singlet-AG     3.4177 eV  362.77 nm  f=0.0000  <S**2>=0.000
     100 ->104        -0.16377
     103 ->107         0.67968
 This state for optimization and/or second-order correction.
 Total Energy, E(TD-HF/TD-DFT) =  -1228.33268684
 Copying the excited state density for this state as the 1-particle RhoCI density.

 Excited State   6:      Singlet-B2U    3.6274 eV  341.80 nm  f=1.0014  <S**2>=0.000
     100 ->106         0.11911
     101 ->107         0.12055
     102 ->104        -0.48355
     103 ->105         0.47834

 Excited State   7:      Singlet-AG     3.7928 eV  326.90 nm  f=0.0000  <S**2>=0.000
     100 ->104         0.66096
     102 ->106         0.15755
     103 ->107         0.14794

 Excited State   8:      Singlet-B1U    3.9475 eV  314.08 nm  f=0.2627  <S**2>=0.000
     101 ->106        -0.13508
     102 ->105         0.67013
     103 ->104         0.12267

 Excited State   9:      Singlet-B1U    3.9940 eV  310.43 nm  f=0.0001  <S**2>=0.000
      97 ->104         0.11014
     103 ->108         0.69067

 Excited State  10:      Singlet-AG     4.0000 eV  309.96 nm  f=0.0000  <S**2>=0.000
      99 ->104         0.24350
     101 ->105        -0.42860
     102 ->106        -0.46168
     103 ->110         0.17004

 Excited State  11:      Singlet-B3G    4.0130 eV  308.95 nm  f=0.0000  <S**2>=0.000
      98 ->104        -0.27618
     100 ->105        -0.13265
     102 ->107        -0.38118
     103 ->109         0.50245

 Excited State  12:      Singlet-B3G    4.1687 eV  297.42 nm  f=0.0000  <S**2>=0.000
      98 ->104        -0.15819
     100 ->105         0.11302
     102 ->107         0.56226
     103 ->109         0.36310

 The electronic state is 1-AG.
 Alpha  occ. eigenvalues --  -10.19408 -10.19370 -10.19197 -10.19196 -10.19159
 Alpha  occ. eigenvalues --  -10.19159 -10.19131 -10.19130 -10.19130 -10.19129
 Alpha  occ. eigenvalues --  -10.19041 -10.19041 -10.19039 -10.19039 -10.19011
 Alpha  occ. eigenvalues --  -10.19009 -10.19006 -10.19006 -10.18300 -10.18299
 Alpha  occ. eigenvalues --  -10.18299 -10.18299 -10.18288 -10.18288 -10.18228
 Alpha  occ. eigenvalues --  -10.18227 -10.18227 -10.18226 -10.18205 -10.18205
 Alpha  occ. eigenvalues --  -10.18137 -10.18137  -0.91988  -0.89582  -0.88584
 Alpha  occ. eigenvalues --   -0.85889  -0.85762  -0.82840  -0.81769  -0.81249
 Alpha  occ. eigenvalues --   -0.79461  -0.77042  -0.76436  -0.76317  -0.74323
 Alpha  occ. eigenvalues --   -0.73489  -0.72379  -0.70514  -0.65420  -0.65220
 Alpha  occ. eigenvalues --   -0.64941  -0.64172  -0.64030  -0.62532  -0.58740
 Alpha  occ. eigenvalues --   -0.58453  -0.57532  -0.55741  -0.54495  -0.54217
 Alpha  occ. eigenvalues --   -0.54056  -0.50663  -0.50386  -0.48890  -0.48877
 Alpha  occ. eigenvalues --   -0.48803  -0.47813  -0.46111  -0.45069  -0.44306
 Alpha  occ. eigenvalues --   -0.44115  -0.44031  -0.43898  -0.43166  -0.43015
 Alpha  occ. eigenvalues --   -0.42300  -0.41845  -0.41285  -0.40809  -0.40174
 Alpha  occ. eigenvalues --   -0.39995  -0.39811  -0.38785  -0.37554  -0.37500
 Alpha  occ. eigenvalues --   -0.37065  -0.36795  -0.36508  -0.35799  -0.34720
 Alpha  occ. eigenvalues --   -0.33939  -0.32583  -0.32221  -0.31826  -0.31745
 Alpha  occ. eigenvalues --   -0.29976  -0.27492  -0.26810  -0.26468  -0.24720
 Alpha  occ. eigenvalues --   -0.23758  -0.21749  -0.18962
 Alpha virt. eigenvalues --   -0.08860  -0.06069  -0.04485  -0.04145  -0.01922
 Alpha virt. eigenvalues --   -0.01908  -0.01026  -0.00846  -0.00423  -0.00303
 Alpha virt. eigenvalues --    0.00598   0.00653   0.01802   0.01902   0.01990

 Mulliken charges:
               1
     1  C   -0.135402
     2  C   -0.128594
     3  C   -0.096738
     4  C   -0.096738
     5  C   -0.128594
     6  C   -0.135402
     7  C   -0.128594
     8  C   -0.128594
     9  C   -0.135402
    10  C   -0.135402
    11  C    0.353165
    12  C   -0.195384
    13  C   -0.290429
    14  C    0.388266
    15  C   -0.138895
    16  C    0.388266
    17  H    0.037821
    18  H    0.100399
    19  H    0.106390
    20  C    0.388266
    21  C   -0.138895
    22  C    0.388266
    23  H    0.037821
    24  C   -0.290429
    25  C   -0.195384
    26  C    0.353165
    27  H    0.106390
    28  H    0.100399
    29  C   -0.193010
    30  H    0.093503
    31  C   -0.193010
    32  H    0.093503
    33  C   -0.290429
    34  C   -0.195384
    35  H    0.100399
    36  C    0.353165
    37  H    0.106390
    38  C   -0.193010
    39  H    0.093503
    40  C    0.353165
    41  C   -0.290429
    42  C   -0.195384
    43  H    0.100399
    44  C   -0.193010
    45  H    0.093503
    46  H    0.106390
 Sum of Mulliken charges =  -0.00000

 Dipole moment (field-independent basis, Debye):
    X=              0.0000    Y=              0.0000    Z=              0.0000  Tot=              0.0000
 Quadrupole moment (field-independent basis, Debye-Ang):
   XX=           -191.0580   YY=           -157.0888   ZZ=           -158.5479
   XY=              0.0000   XZ=             -0.0000   YZ=              0.0000

  Exact polarizability: 164.357   0.000 798.793  -0.000   0.000 529.386
 Approx polarizability: 289.485   0.0001269.870  -0.000   0.0001110.730

                      1                      2                      3
                     ?A                     ?A                     B3U
 Frequencies --     58.2635                60.9786                94.1346
 Red. masses --      5.5871                 5.7576                 5.1382
 Frc consts  --      0.0112                 0.0126                 0.0268
 IR Inten    --      0.0040                 1.3200                 5.4966

                      4                      5                      6
                     ?A                     ?A                     B1G
 Frequencies --    130.3989               145.4015               181.3042
 Red. masses --      4.7468                 5.2959                 5.5687
 Frc consts  --      0.0476                 0.0660                 0.1079
 IR Inten    --      0.0000                 0.0000                 0.0000

                      7                      8                      9
                     B3U                    ?B                     ?B
 Frequencies --    216.1209               251.7051               259.0986
 Red. masses --      4.3432                 4.7243                 4.9171
 Frc consts  --      0.1195                 0.1763                 0.1945
 IR Inten    --      0.4359                 0.0000                 0.0000

                     10                     11                     12
                     B1U                    B3G                    ?A
 Frequencies --    280.6536               298.8829               317.5841
 Red. masses --      5.8895                 8.6325                 5.7639
 Frc consts  --      0.2733                 0.4543                 0.3425
 IR Inten    --      0.9893                 0.0000                 0.0001

                     13                     14                     15
                     ?A                     AG                     ?A
 Frequencies --    319.1253               326.2121               332.9840
 Red. masses --      6.6032                 8.6590                 4.6326
 Frc consts  --      0.3962                 0.5429                 0.3026
 IR Inten    --      3.4586                 0.0000                 0.0000

                     16                     17                     18
                     ?A                     B2U                    B2U
 Frequencies --    335.5774               395.4876               414.6460
 Red. masses --      3.9807                 6.3629                 7.3491
 Frc consts  --      0.2641                 0.5864                 0.7445
 IR Inten    --      0.0000                21.4372                 0.7107

                     19                     20                     21
                     B3U                    AG                     AG
 Frequencies --    415.9192               422.5020               455.9108
 Red. masses --      3.4190                 6.0023                 6.2326
 Frc consts  --      0.3485                 0.6313                 0.7633
 IR Inten    --      0.9552                 0.0000                 0.0000

                     22                     23                     24
                     ?C                     AU                     B3G
 Frequencies --    458.8488               470.5061               479.5528
 Red. masses --      5.0046                 3.7451                 5.1092
 Frc consts  --      0.6208                 0.4885                 0.6923
 IR Inten    --      0.0000                 0.0000                 0.0000

                     25                     26                     27
                     B1U                    ?C                     ?C
 Frequencies --    498.4976               504.4820               514.6738
 Red. masses --      5.9005                 4.6676                 3.8987
 Frc consts  --      0.8639                 0.6999                 0.6085
 IR Inten    --      2.9334                 0.0000                 0.0000

                     28                     29                     30
                     ?C                     B3G                    B2U
 Frequencies --    521.9960               541.1126               542.2770
 Red. masses --      3.8891                 5.3987                 5.3224
 Frc consts  --      0.6244                 0.9314                 0.9221
 IR Inten    --      9.7214                 0.0000                 0.3733

                     31                     32                     33
                     ?C                     AG                     ?C
 Frequencies --    581.3360               582.9975               584.6781
 Red. masses --      6.0322                 6.8090                 5.6628
 Frc consts  --      1.2011                 1.3635                 1.1406
 IR Inten    --      0.0000                 0.0000                 0.0002

                     34                     35                     36
                     B1U                    ?C                     ?C
 Frequencies --    585.3563               591.2420               632.3138
 Red. masses --      5.2574                 3.3770                 3.1679
 Frc consts  --      1.0614                 0.6955                 0.7463
 IR Inten    --      0.9974                 0.0001                36.5210

                     37                     38                     39
                     B3G                    AU                     B1U
 Frequencies --    651.8074               660.1609               663.8522
 Red. masses --      8.1276                 3.3233                 7.1842
 Frc consts  --      2.0345                 0.8533                 1.8654
 IR Inten    --      0.0000                 0.0000                 1.0786

                     40                     41                     42
                     B2U                    B2G                    B1U
 Frequencies --    684.7351               689.4365               717.0721
 Red. masses --      7.9418                 3.1576                 7.4250
 Frc consts  --      2.1939                 0.8843                 2.2494
 IR Inten    --      1.6842                 0.0000                 0.4150

                     43                     44                     45
                     B3G                    B3G                    B3G
 Frequencies --    717.9967               735.0208               751.7154
 Red. masses --      5.1240                 2.1688                 1.3943
 Frc consts  --      1.5563                 0.6903                 0.4642
 IR Inten    --      0.0000                 0.0001                 9.0805

                     46                     47                     48
                     B3G                    AG                     B3G
 Frequencies --    756.2855               765.4032               777.8064
 Red. masses --      3.2556                 6.2082                 5.3769
 Frc consts  --      1.0971                 2.1429                 1.9166
 IR Inten    --      0.0001                 0.0000                 0.0003

                     49                     50                     51
                     B3G                    B3G                    B2U
 Frequencies --    781.6815               782.7595               786.0782
 Red. masses --      2.9504                 1.9679                 6.4647
 Frc consts  --      1.0622                 0.7104                 2.3536
 IR Inten    --      0.2469                 0.0001                17.5216

                     52                     53                     54
                     B1U                    B2G                    AU
 Frequencies --    800.6761               803.5459               816.0654
 Red. masses --      7.4663                 1.7064                 1.6788
 Frc consts  --      2.8201                 0.6492                 0.6587
 IR Inten    --      4.6557                 0.0000                 0.0000

                     55                     56                     57
                     B3U                    B1G                    B3G
 Frequencies --    842.1758               849.3237               856.3119
 Red. masses --      1.6714                 1.6799                 6.0574
 Frc consts  --      0.6985                 0.7140                 2.6170
 IR Inten    --     91.9498                 0.0000                 0.0000

                     58                     59                     60
                     B2G                    B3U                    B3G
 Frequencies --    891.7370               896.3606               917.8144
 Red. masses --      1.5508                 1.5889                 6.5507
 Frc consts  --      0.7266                 0.7522                 3.2512
 IR Inten    --      0.0000                83.0158                 0.0000

                     61                     62                     63
                     AG                     B1U                    AU
 Frequencies --    921.8530               935.6358               947.5798
 Red. masses --      7.1545                 5.7249                 1.3425
 Frc consts  --      3.5822                 2.9528                 0.7102
 IR Inten    --      0.0000                 0.4203                 0.0000

                     64                     65                     66
                     B1G                    B2G                    B3U
 Frequencies --    951.8823               953.3360               957.2376
 Red. masses --      1.3699                 1.3883                 1.4197
 Frc consts  --      0.7313                 0.7434                 0.7665
 IR Inten    --      0.0000                 0.0000                 3.4038

                     67                     68                     69
                     AU                     B2G                    B2U
 Frequencies --    963.9386               964.9705               997.5258
 Red. masses --      1.3795                 1.3942                 4.5542
 Frc consts  --      0.7552                 0.7649                 2.6700
 IR Inten    --      0.0000                 0.0000                 0.0984

                     70                     71                     72
                     AG                     B1U                    B2U
 Frequencies --   1053.9930              1063.4464              1087.6303
 Red. masses --      4.9509                 4.5007                 2.3669
 Frc consts  --      3.2405                 2.9989                 1.6497
 IR Inten    --      0.0000                 7.2929                26.7886

                     73                     74                     75
                     B3G                    B3G                    AG
 Frequencies --   1123.6129              1147.5761              1161.3477
 Red. masses --      1.8914                 2.5250                 1.4873
 Frc consts  --      1.4069                 1.9592                 1.1819
 IR Inten    --      0.0000                 0.0000                 0.0000

                     76                     77                     78
                     B2U                    AG                     B1U
 Frequencies --   1162.3613              1169.7521              1172.3478
 Red. masses --      1.2931                 1.4936                 1.3539
 Frc consts  --      1.0294                 1.2041                 1.0963
 IR Inten    --      7.9610                 0.0000                 0.0002

                     79                     80                     81
                     B3G                    B2U                    B2U
 Frequencies --   1194.4783              1203.1893              1230.5242
 Red. masses --      2.0096                 1.6315                 2.4373
 Frc consts  --      1.6893                 1.3916                 2.1744
 IR Inten    --      0.0000                53.3689                37.8011

                     82                     83                     84
                     AG                     B1U                    B3G
 Frequencies --   1235.3484              1240.0211              1242.6146
 Red. masses --      2.2365                 2.2433                 1.6651
 Frc consts  --      2.0109                 2.0324                 1.5148
 IR Inten    --      0.0000                29.1668                 0.0000

                     85                     86                     87
                     B2U                    AG                     B1U
 Frequencies --   1253.6951              1261.2102              1276.4489
 Red. masses --      2.1932                 4.8184                 2.3509
 Frc consts  --      2.0310                 4.5157                 2.2568
 IR Inten    --    185.9057                 0.0000                 5.0892

                     88                     89                     90
                     B3G                    B1U                    AG
 Frequencies --   1288.0065              1321.8244              1331.7742
 Red. masses --      3.8631                 4.9389                 3.0834
 Frc consts  --      3.7759                 5.0843                 3.2221
 IR Inten    --      0.0000                26.2710                 0.0000

                     91                     92                     93
                     B2U                    B3G                    B2U
 Frequencies --   1367.5530              1376.1979              1386.4211
 Red. masses --      9.7407                 4.6309                 4.3916
 Frc consts  --     10.7332                 5.1674                 4.9736
 IR Inten    --     53.5156                 0.0000                 2.6967

                     94                     95                     96
                     B1U                    AG                     B3G
 Frequencies --   1386.9256              1388.9694              1404.3586
 Red. masses --      7.5421                 7.3713                 2.9416
 Frc consts  --      8.5476                 8.3788                 3.4182
 IR Inten    --     67.2903                 0.0000                 0.0000

                     97                     98                     99
                     B2U                    AG                     B2U
 Frequencies --   1407.7733              1414.4380              1425.0758
 Red. masses --      3.3737                 8.0093                 5.7563
 Frc consts  --      3.9393                 9.4409                 6.8877
 IR Inten    --     75.0373                 0.0000               304.3246

                    100                    101                    102
                     B3G                    AG                     B1U
 Frequencies --   1451.8077              1453.5520              1461.6006
 Red. masses --      1.6849                 6.8167                 1.8309
 Frc consts  --      2.0923                 8.4856                 2.3044
 IR Inten    --      0.0000                 0.0000                 1.3741

                    103                    104                    105
                     B1U                    B2U                    B3G
 Frequencies --   1474.2651              1474.8859              1486.9076
 Red. masses --      7.4482                 2.4460                 3.4266
 Frc consts  --      9.5379                 3.1349                 4.4636
 IR Inten    --    397.5950                 6.6862                 0.0000

                    106                    107                    108
                     AG                     AG                     B3G
 Frequencies --   1487.0423              1509.6651              1526.2835
 Red. masses --      6.0764                 3.0629                 4.2835
 Frc consts  --      7.9167                 4.1129                 5.8793
 IR Inten    --      0.0000                 0.0000                 0.0000

                    109                    110                    111
                     B2U                    B1U                    B1U
 Frequencies --   1549.4227              1552.2037              1569.8887
 Red. masses --      6.6095                 3.6047                 9.7150
 Frc consts  --      9.3488                 5.1170                14.1068
 IR Inten    --     49.8038                28.2912               203.5536

                    112                    113                    114
                     B2U                    B3G                    B1U
 Frequencies --   1581.9847              1594.4566              1596.6087
 Red. masses --      4.6759                 5.1105                 6.6402
 Frc consts  --      6.8947                 7.6548                 9.9731
 IR Inten    --      2.5568                 0.0000               214.4401

                    115                    116                    117
                     B2U                    AG                     AG
 Frequencies --   1604.5440              1612.0319              1622.1239
 Red. masses --      5.4287                 7.3794                 6.0394
 Frc consts  --      8.2347                11.2984                 9.3630
 IR Inten    --    390.1124                 0.0000                 0.0000

                    118                    119                    120
                     B3G                    B1U                    AG
 Frequencies --   2346.9946              3163.3123              3163.4595
 Red. masses --     10.9843                 1.0887                 1.0889
 Frc consts  --     35.6490                 6.4188                 6.4205
 IR Inten    --      0.0000                 9.9625                 0.0000

                    121                    122                    123
                     B3G                    B2U                    B1U
 Frequencies --   3168.4908              3168.9072              3169.5332
 Red. masses --      1.0868                 1.0870                 1.0870
 Frc consts  --      6.4282                 6.4312                 6.4338
 IR Inten    --      0.0000                 0.0001                27.4357

                    124                    125                    126
                     AG                     B3G                    B1U
 Frequencies --   3170.0571              3170.4590              3170.9151
 Red. masses --      1.0873                 1.0865                 1.0869
 Frc consts  --      6.4379                 6.4346                 6.4392
 IR Inten    --      0.0000                 0.0000                 8.3620

                    127                    128                    129
                     AG                     B2U                    B1U
 Frequencies --   3185.9287              3186.0500              3188.7658
 Red. masses --      1.0942                 1.0945                 1.0934
 Frc consts  --      6.5437                 6.5458                 6.5505
 IR Inten    --      0.0000                 7.0474                72.1577

                    130                    131                    132
                     B2U                    AG                     B3G
 Frequencies --   3189.4464              3190.0965              3192.7392
 Red. masses --      1.0931                 1.0934                 1.1003
 Frc consts  --      6.5517                 6.5561                 6.6083
 IR Inten    --     82.4986                 0.0000                 0.0000

 - Thermochemistry -
 -------------------
 Temperature   298.150 Kelvin.  Pressure   1.00000 Atm.
 Atom     1 has atomic number  6 and mass  12.00000

 Molecular mass:   398.10955 amu.
 Principal axes and moments of inertia in atomic units:
                           1         2         3
     Eigenvalues --  7524.66203********************
           X            0.00000   0.00000   1.00000
           Y            1.00000   0.00000  -0.00000
           Z           -0.00000   1.00000   0.00000
 This molecule is an asymmetric top.
 Rotational symmetry number  4.
 Warning -- assumption of classical behavior for rotation
           may cause significant error
 Rotational temperatures (Kelvin)      0.01151     0.00707     0.00438
 Rotational constants (GHZ):           0.23984     0.14726     0.09124
 Zero-point vibrational energy     916374.7 (Joules/Mol)
                                  219.01881 (Kcal/Mol)
 Warning -- explicit consideration of  35 degrees of freedom as
           vibrations may cause significant error
 Vibrational temperatures:     83.83    87.73   135.44   187.61   209.20
          (Kelvin)            260.86   310.95   362.15   372.79   403.80
                              430.03   456.93   459.15   469.35   479.09
                              482.82   569.02   596.58   598.42   607.89
                              655.95   660.18   676.95   689.97   717.23
                              725.84   740.50   751.04   778.54   780.22
                              836.41   838.80   841.22   842.20   850.67
                              909.76   937.81   949.82   955.14   985.18
                              991.95  1031.71  1033.04  1057.53  1081.55
                             1088.13  1101.24  1119.09  1124.67  1126.22
                             1130.99  1151.99  1156.12  1174.14  1211.70
                             1221.99  1232.04  1283.01  1289.66  1320.53
                             1326.34  1346.17  1363.36  1369.55  1371.64
                             1377.25  1386.89  1388.38  1435.22  1516.46
                             1530.06  1564.86  1616.63  1651.11  1670.92
                             1672.38  1683.01  1686.75  1718.59  1731.12
                             1770.45  1777.39  1784.11  1787.85  1803.79
                             1814.60  1836.53  1853.15  1901.81  1916.13
                             1967.60  1980.04  1994.75  1995.48  1998.42
                             2020.56  2025.47  2035.06  2050.37  2088.83
                             2091.34  2102.92  2121.14  2122.03  2139.33
                             2139.52  2172.07  2195.98  2229.27  2233.27
                             2258.72  2276.12  2294.07  2297.16  2308.58
                             2319.35  2333.87  3376.80  4551.30  4551.51
                             4558.75  4559.35  4560.25  4561.01  4561.58
                             4562.24  4583.84  4584.02  4587.92  4588.90
                             4589.84  4593.64

 Zero-point correction=                           0.349029 (Hartree/Particle)
 Thermal correction to Energy=                    0.367939
 Thermal correction to Enthalpy=                  0.368883
 Thermal correction to Gibbs Free Energy=         0.305565
 Sum of electronic and zero-point Energies=          -1227.983658
 Sum of electronic and thermal Energies=             -1227.964748
 Sum of electronic and thermal Enthalpies=           -1227.963804
 Sum of electronic and thermal Free Energies=        -1228.027122

                     E (Thermal)             CV                S
                      KCal/Mol        Cal/Mol-Kelvin    Cal/Mol-Kelvin
 Total                  230.885             86.250            133.265
 Electronic               0.000              0.000              0.000
 Translational            0.889              2.981             43.836
 Rotational               0.889              2.981             33.099
 Vibrational            229.108             80.288             56.330
 Vibration     1          0.596              1.974              4.515
 Vibration     2          0.597              1.973              4.425
 Vibration     3          0.603              1.953              3.572
 Vibration     4          0.612              1.923              2.940
 Vibration     5          0.617              1.908              2.732
 Vibration     6          0.630              1.865              2.315
 Vibration     7          0.645              1.816              1.991
 Vibration     8          0.664              1.760              1.719
 Vibration     9          0.668              1.747              1.668
 Vibration    10          0.680              1.709              1.530
 Vibration    11          0.692              1.676              1.423
 Vibration    12          0.704              1.640              1.323
 Vibration    13          0.705              1.637              1.315
 Vibration    14          0.710              1.623              1.279
 Vibration    15          0.715              1.610              1.246
 Vibration    16          0.717              1.604              1.233
 Vibration    17          0.762              1.480              0.979
 Vibration    18          0.778              1.438              0.910
 Vibration    19          0.779              1.436              0.906
 Vibration    20          0.785              1.421              0.884
 Vibration    21          0.814              1.348              0.778
 Vibration    22          0.817              1.341              0.769
 Vibration    23          0.828              1.315              0.736
 Vibration    24          0.836              1.295              0.711
 Vibration    25          0.854              1.253              0.662
 Vibration    26          0.860              1.240              0.647
 Vibration    27          0.870              1.217              0.622
 Vibration    28          0.877              1.201              0.605
 Vibration    29          0.896              1.159              0.563
 Vibration    30          0.897              1.157              0.560
 Vibration    31          0.938              1.072              0.483
 Vibration    32          0.940              1.068              0.480
 Vibration    33          0.942              1.064              0.477
 Vibration    34          0.942              1.063              0.476
 Vibration    35          0.949              1.050              0.465

 Optimization completed.
    -- Stationary point found.
 Normal termination of Gaussian 16 at Thu Mar  2 23:52:14 2023.
