 Gaussian 16, Revision A.03,
 Gaussian 16:  EM64L-G16RevA.03 25-Dec-2016

 ----------------------------------------------------------------------
 # opt=tight td=(nstates=10,root=6) b3lyp/6-311++g(2d,2p) geom=connecti
 vity empiricaldispersion=gd3bj
 ----------------------------------------------------------------------

 ---------------------------------------------------------
 Ovalene excited state optimization + freq with dispersion
 ---------------------------------------------------------
 Symbolic Z-matrix:
 Charge =  0 Multiplicity = 1

 SCF Done:  E(RB3LYP) =  -1228.45992078     A.U. after   13 cycles
 Total Energy, E(TD-HF/TD-DFT) =  -1228.32749477
 SCF Done:  E(RB3LYP) =  -1228.46044669     A.U. after   10 cycles
 Total Energy, E(TD-HF/TD-DFT) =  -1228.32770928
 SCF Done:  E(RB3LYP) =  -1228.46069197     A.U. after    9 cycles
 Total Energy, E(TD-HF/TD-DFT) =  -1228.32773739
 SCF Done:  E(RB3LYP) =  -1228.46069126     A.U. after    6 cycles
 Total Energy, E(TD-HF/TD-DFT) =  -1228.32773767
 SCF Done:  E(RB3LYP) =  -1228.46069233     A.U. after    5 cycles
 Total Energy, E(TD-HF/TD-DFT) =  -1228.32773768
 SCF Done:  E(RB3LYP) =  -1228.46069282     A.U. after    4 cycles
 Total Energy, E(TD-HF/TD-DFT) =  -1228.32773768
 SCF Done:  E(RB3LYP) =  -1228.46069242     A.U. after    3 cycles

 Excitation energies and oscillator strengths:

 Excited State   1:      Singlet-B1U    2.6298 eV  471.46 nm  f=0.1548  <S**2>=0.000
     102 ->105        -0.17327
     103 ->104         0.68228

 Excited State   2:      Singlet-B2U    2.7603 eV  449.17 nm  f=0.0000  <S**2>=0.000
     102 ->104         0.49933
     103 ->105         0.49807

 Excited State   3:      Singlet-B3G    3.3370 eV  371.54 nm  f=0.0000  <S**2>=0.000
     101 ->104         0.17491
     103 ->106         0.67915

 Excited State   4:      Singlet-B3G    3.4887 eV  355.39 nm  f=0.0000  <S**2>=0.000
     101 ->104         0.67687
     103 ->106        -0.17351

 Excited State   5:      Singlet-AG     3.5586 eV  348.41 nm  f=0.0000  <S**2>=0.000
     100 ->104        -0.16590
     103 ->107         0.67476

 Excited State   6:      Singlet-B2U    3.6179 eV  342.70 nm  f=1.0405  <S**2>=0.000
     100 ->106         0.11536
     101 ->107        -0.11863
     102 ->104        -0.48155
     103 ->105         0.48312
 This state for optimization and/or second-order correction.
 Total Energy, E(TD-HF/TD-DFT) =  -1228.32773768
 Copying the excited state density for this state as the 1-particle RhoCI density.

 Excited State   7:      Singlet-B1U    3.8166 eV  324.86 nm  f=0.3072  <S**2>=0.000
     101 ->106         0.12639
     102 ->105         0.66758
     103 ->104         0.15375

 Excited State   8:      Singlet-AG     3.8793 eV  319.61 nm  f=0.0000  <S**2>=0.000
     100 ->104         0.59021
     102 ->106         0.34968
     103 ->107         0.10549

 Excited State   9:      Singlet-AG     3.9450 eV  314.28 nm  f=0.0000  <S**2>=0.000
      99 ->104         0.19947
     100 ->104         0.25935
     101 ->105         0.45222
     102 ->106        -0.39140
     103 ->107         0.12551
     103 ->110         0.10087

 Excited State  10:      Singlet-B1U    4.0211 eV  308.33 nm  f=0.0003  <S**2>=0.000
      97 ->104         0.10054
     103 ->108         0.69276

 Optimization completed.
    -- Stationary point found.

                         Standard orientation:
 ---------------------------------------------------------------------
 Center     Atomic      Atomic             Coordinates (Angstroms)
 Number     Number       Type             X           Y           Z
 ---------------------------------------------------------------------
      1          6           0        0.000000    2.454980    0.713659
      2          6           0        0.000000    1.229164    1.420479
      3          6           0        0.000000    0.000000    0.712978
      4          6           0        0.000000   -0.000000   -0.712978
      5          6           0        0.000000    1.229164   -1.420479
      6          6           0        0.000000    2.454980   -0.713659
      7          6           0       -0.000000   -1.229164    1.420479
      8          6           0       -0.000000   -1.229164   -1.420479
      9          6           0       -0.000000   -2.454980   -0.713659
     10          6           0       -0.000000   -2.454980    0.713659
     11          6           0       -0.000000   -3.691222   -1.422840
     12          6           0       -0.000000   -3.660566   -2.847981
     13          6           0       -0.000000   -2.476695   -3.535033
     14          6           0       -0.000000   -1.225679   -2.856401
     15          6           0       -0.000000    0.000000   -3.537627
     16          6           0        0.000000    1.225679   -2.856401
     17          1           0       -0.000000    0.000000   -4.619766
     18          1           0       -0.000000   -4.599530   -3.384824
     19          1           0       -0.000000   -2.476994   -4.616770
     20          6           0        0.000000    1.225679    2.856401
     21          6           0       -0.000000    0.000000    3.537627
     22          6           0       -0.000000   -1.225679    2.856401
     23          1           0       -0.000000    0.000000    4.619766
     24          6           0       -0.000000   -2.476695    3.535033
     25          6           0       -0.000000   -3.660566    2.847981
     26          6           0       -0.000000   -3.691222    1.422840
     27          1           0       -0.000000   -2.476994    4.616770
     28          1           0       -0.000000   -4.599530    3.384824
     29          6           0       -0.000000   -4.895686   -0.692115
     30          1           0       -0.000000   -5.833451   -1.231362
     31          6           0       -0.000000   -4.895686    0.692115
     32          1           0       -0.000000   -5.833451    1.231362
     33          6           0        0.000000    2.476695   -3.535033
     34          6           0        0.000000    3.660566   -2.847981
     35          1           0        0.000000    4.599530   -3.384824
     36          6           0        0.000000    3.691222   -1.422840
     37          1           0        0.000000    2.476994   -4.616770
     38          6           0        0.000000    4.895686   -0.692115
     39          1           0        0.000000    5.833451   -1.231362
     40          6           0        0.000000    3.691222    1.422840
     41          6           0        0.000000    2.476695    3.535033
     42          6           0        0.000000    3.660566    2.847981
     43          1           0        0.000000    4.599530    3.384824
     44          6           0        0.000000    4.895686    0.692115
     45          1           0        0.000000    5.833451    1.231362
     46          1           0        0.000000    2.476994    4.616770
 ---------------------------------------------------------------------

 The electronic state is 1-AG.
 Alpha  occ. eigenvalues --  -10.19310 -10.19269 -10.19231 -10.19229 -10.19227
 Alpha  occ. eigenvalues --  -10.19227 -10.19177 -10.19176 -10.19164 -10.19156
 Alpha  occ. eigenvalues --  -10.19132 -10.19127 -10.19110 -10.19108 -10.19059
 Alpha  occ. eigenvalues --  -10.19059 -10.19056 -10.19056 -10.18273 -10.18273
 Alpha  occ. eigenvalues --  -10.18273 -10.18272 -10.18267 -10.18266 -10.18229
 Alpha  occ. eigenvalues --  -10.18229 -10.18191 -10.18190 -10.18189 -10.18189
 Alpha  occ. eigenvalues --  -10.18168 -10.18168  -0.91958  -0.89556  -0.88389
 Alpha  occ. eigenvalues --   -0.85927  -0.85577  -0.83047  -0.81731  -0.81154
 Alpha  occ. eigenvalues --   -0.79610  -0.77002  -0.76451  -0.76230  -0.74533
 Alpha  occ. eigenvalues --   -0.73456  -0.72108  -0.70801  -0.65245  -0.64966
 Alpha  occ. eigenvalues --   -0.64921  -0.64279  -0.64246  -0.62543  -0.58865
 Alpha  occ. eigenvalues --   -0.58132  -0.57587  -0.55677  -0.54502  -0.54285
 Alpha  occ. eigenvalues --   -0.54010  -0.50778  -0.50181  -0.48927  -0.48844
 Alpha  occ. eigenvalues --   -0.48830  -0.47810  -0.46404  -0.44982  -0.44303
 Alpha  occ. eigenvalues --   -0.44091  -0.43968  -0.43904  -0.43214  -0.42743
 Alpha  occ. eigenvalues --   -0.42596  -0.41693  -0.41271  -0.40827  -0.40045
 Alpha  occ. eigenvalues --   -0.40007  -0.39919  -0.38761  -0.37593  -0.37367
 Alpha  occ. eigenvalues --   -0.37101  -0.36678  -0.36552  -0.35885  -0.34662
 Alpha  occ. eigenvalues --   -0.34127  -0.32397  -0.32170  -0.31929  -0.31706
 Alpha  occ. eigenvalues --   -0.30132  -0.27460  -0.26730  -0.26397  -0.24962
 Alpha  occ. eigenvalues --   -0.23761  -0.21453  -0.19189
 Alpha virt. eigenvalues --   -0.08691  -0.06382  -0.04490  -0.03810  -0.02048
 Alpha virt. eigenvalues --   -0.01947  -0.01125  -0.00851  -0.00414  -0.00322
 Alpha virt. eigenvalues --    0.00594   0.00652   0.01895   0.01991   0.02030

 Mulliken charges:
               1
     1  C   -0.136597
     2  C   -0.132145
     3  C   -0.090418
     4  C   -0.090418
     5  C   -0.132145
     6  C   -0.136597
     7  C   -0.132145
     8  C   -0.132145
     9  C   -0.136597
    10  C   -0.136597
    11  C    0.340635
    12  C   -0.179989
    13  C   -0.285324
    14  C    0.384189
    15  C   -0.137690
    16  C    0.384189
    17  H    0.038594
    18  H    0.099588
    19  H    0.106350
    20  C    0.384189
    21  C   -0.137690
    22  C    0.384189
    23  H    0.038594
    24  C   -0.285324
    25  C   -0.179989
    26  C    0.340635
    27  H    0.106350
    28  H    0.099588
    29  C   -0.195328
    30  H    0.093377
    31  C   -0.195328
    32  H    0.093377
    33  C   -0.285324
    34  C   -0.179989
    35  H    0.099588
    36  C    0.340635
    37  H    0.106350
    38  C   -0.195328
    39  H    0.093377
    40  C    0.340635
    41  C   -0.285324
    42  C   -0.179989
    43  H    0.099588
    44  C   -0.195328
    45  H    0.093377
    46  H    0.106350
 Sum of Mulliken charges =  -0.00000

 Dipole moment (field-independent basis, Debye):
    X=              0.0000    Y=             -0.0000    Z=             -0.0000  Tot=              0.0000
 Quadrupole moment (field-independent basis, Debye-Ang):
   XX=           -191.0769   YY=           -157.6068   ZZ=           -158.1315
   XY=              0.0000   XZ=             -0.0000   YZ=             -0.0000

 Normal termination of Gaussian 16 at Sat Mar 11 05:41:09 2023.
