 Gaussian 16, Revision A.03,
 Gaussian 16:  ES64L-G16RevA.03 25-Dec-2016

 ----------------------------------------------------------------------
 # freq=(savenormalmodes,hpmodes) td=(nstates=10,root=6) b3lyp/6-311++g
 (2d,2p) geom=connectivity empiricaldispersion=gd3bj
 ----------------------------------------------------------------------

 ---------------------------------------------------------
 Ovalene excited state optimization + freq with dispersion
 ---------------------------------------------------------
 Symbolic Z-matrix:
 Charge =  0 Multiplicity = 1

                         Standard orientation:
 ---------------------------------------------------------------------
 Center     Atomic      Atomic             Coordinates (Angstroms)
 Number     Number       Type             X           Y           Z
 ---------------------------------------------------------------------
      1          6           0        0.000000    2.454980    0.713659
      2          6           0        0.000000    1.229164    1.420479
      3          6           0        0.000000    0.000000    0.712978
      4          6           0        0.000000    0.000000   -0.712978
      5          6           0        0.000000    1.229164   -1.420479
      6          6           0        0.000000    2.454980   -0.713659
      7          6           0       -0.000000   -1.229164    1.420479
      8          6           0       -0.000000   -1.229164   -1.420479
      9          6           0       -0.000000   -2.454980   -0.713659
     10          6           0       -0.000000   -2.454980    0.713659
     11          6           0        0.000000   -3.691222   -1.422840
     12          6           0        0.000000   -3.660566   -2.847981
     13          6           0        0.000000   -2.476695   -3.535033
     14          6           0        0.000000   -1.225679   -2.856401
     15          6           0        0.000000    0.000000   -3.537627
     16          6           0        0.000000    1.225679   -2.856401
     17          1           0        0.000000    0.000000   -4.619766
     18          1           0        0.000000   -4.599530   -3.384824
     19          1           0        0.000000   -2.476994   -4.616770
     20          6           0        0.000000    1.225679    2.856401
     21          6           0       -0.000000    0.000000    3.537627
     22          6           0       -0.000000   -1.225679    2.856401
     23          1           0       -0.000000    0.000000    4.619766
     24          6           0       -0.000000   -2.476695    3.535033
     25          6           0       -0.000000   -3.660566    2.847981
     26          6           0       -0.000000   -3.691222    1.422840
     27          1           0       -0.000000   -2.476994    4.616770
     28          1           0       -0.000000   -4.599530    3.384824
     29          6           0        0.000000   -4.895686   -0.692115
     30          1           0        0.000000   -5.833451   -1.231362
     31          6           0       -0.000000   -4.895686    0.692115
     32          1           0       -0.000000   -5.833451    1.231362
     33          6           0        0.000000    2.476695   -3.535033
     34          6           0        0.000000    3.660566   -2.847981
     35          1           0        0.000000    4.599530   -3.384824
     36          6           0        0.000000    3.691222   -1.422840
     37          1           0        0.000000    2.476994   -4.616770
     38          6           0        0.000000    4.895686   -0.692115
     39          1           0        0.000000    5.833451   -1.231362
     40          6           0        0.000000    3.691222    1.422840
     41          6           0        0.000000    2.476695    3.535033
     42          6           0        0.000000    3.660566    2.847981
     43          1           0        0.000000    4.599530    3.384824
     44          6           0        0.000000    4.895686    0.692115
     45          1           0        0.000000    5.833451    1.231362
     46          1           0        0.000000    2.476994    4.616770
 ---------------------------------------------------------------------

 SCF Done:  E(RB3LYP) =  -1228.46069236     A.U. after   13 cycles

 Excitation energies and oscillator strengths:

 Excited State   1:      Singlet-B1U    2.6298 eV  471.46 nm  f=0.1548  <S**2>=0.000
     102 ->105        -0.17327
     103 ->104         0.68228

 Excited State   2:      Singlet-B2U    2.7603 eV  449.17 nm  f=0.0000  <S**2>=0.000
     102 ->104         0.49933
     103 ->105         0.49807

 Excited State   3:      Singlet-B3G    3.3371 eV  371.54 nm  f=0.0000  <S**2>=0.000
     101 ->104         0.17491
     103 ->106         0.67915

 Excited State   4:      Singlet-B3G    3.4887 eV  355.39 nm  f=0.0000  <S**2>=0.000
     101 ->104         0.67687
     103 ->106        -0.17351

 Excited State   5:      Singlet-AG     3.5585 eV  348.41 nm  f=0.0000  <S**2>=0.000
     100 ->104        -0.16590
     103 ->107         0.67476

 Excited State   6:      Singlet-B2U    3.6179 eV  342.70 nm  f=1.0405  <S**2>=0.000
     100 ->106         0.11536
     101 ->107        -0.11863
     102 ->104        -0.48155
     103 ->105         0.48312
 This state for optimization and/or second-order correction.
 Total Energy, E(TD-HF/TD-DFT) =  -1228.32773770
 Copying the excited state density for this state as the 1-particle RhoCI density.

 Excited State   7:      Singlet-B1U    3.8166 eV  324.86 nm  f=0.3072  <S**2>=0.000
     101 ->106         0.12638
     102 ->105         0.66758
     103 ->104         0.15375

 Excited State   8:      Singlet-AG     3.8793 eV  319.61 nm  f=0.0000  <S**2>=0.000
     100 ->104         0.59020
     102 ->106         0.34969
     103 ->107         0.10549

 Excited State   9:      Singlet-AG     3.9450 eV  314.28 nm  f=0.0000  <S**2>=0.000
      99 ->104         0.19947
     100 ->104         0.25936
     101 ->105         0.45222
     102 ->106        -0.39139
     103 ->107         0.12551
     103 ->110         0.10087

 Excited State  10:      Singlet-B1U    4.0211 eV  308.33 nm  f=0.0003  <S**2>=0.000
      97 ->104         0.10054
     103 ->108         0.69276

 The electronic state is 1-AG.
 Alpha  occ. eigenvalues --  -10.19310 -10.19269 -10.19231 -10.19229 -10.19227
 Alpha  occ. eigenvalues --  -10.19227 -10.19177 -10.19176 -10.19164 -10.19156
 Alpha  occ. eigenvalues --  -10.19132 -10.19127 -10.19110 -10.19108 -10.19059
 Alpha  occ. eigenvalues --  -10.19059 -10.19056 -10.19056 -10.18273 -10.18273
 Alpha  occ. eigenvalues --  -10.18273 -10.18272 -10.18267 -10.18266 -10.18229
 Alpha  occ. eigenvalues --  -10.18229 -10.18191 -10.18190 -10.18189 -10.18189
 Alpha  occ. eigenvalues --  -10.18168 -10.18168  -0.91958  -0.89556  -0.88389
 Alpha  occ. eigenvalues --   -0.85927  -0.85577  -0.83047  -0.81731  -0.81154
 Alpha  occ. eigenvalues --   -0.79610  -0.77002  -0.76451  -0.76230  -0.74533
 Alpha  occ. eigenvalues --   -0.73456  -0.72108  -0.70801  -0.65245  -0.64966
 Alpha  occ. eigenvalues --   -0.64921  -0.64279  -0.64246  -0.62543  -0.58865
 Alpha  occ. eigenvalues --   -0.58132  -0.57587  -0.55677  -0.54502  -0.54285
 Alpha  occ. eigenvalues --   -0.54010  -0.50778  -0.50181  -0.48927  -0.48844
 Alpha  occ. eigenvalues --   -0.48830  -0.47810  -0.46404  -0.44982  -0.44303
 Alpha  occ. eigenvalues --   -0.44091  -0.43968  -0.43904  -0.43214  -0.42743
 Alpha  occ. eigenvalues --   -0.42596  -0.41693  -0.41271  -0.40827  -0.40045
 Alpha  occ. eigenvalues --   -0.40007  -0.39919  -0.38761  -0.37593  -0.37367
 Alpha  occ. eigenvalues --   -0.37101  -0.36678  -0.36552  -0.35885  -0.34662
 Alpha  occ. eigenvalues --   -0.34127  -0.32398  -0.32170  -0.31929  -0.31706
 Alpha  occ. eigenvalues --   -0.30132  -0.27460  -0.26730  -0.26397  -0.24962
 Alpha  occ. eigenvalues --   -0.23761  -0.21453  -0.19189
 Alpha virt. eigenvalues --   -0.08691  -0.06382  -0.04490  -0.03810  -0.02048
 Alpha virt. eigenvalues --   -0.01947  -0.01125  -0.00851  -0.00414  -0.00322
 Alpha virt. eigenvalues --    0.00594   0.00652   0.01895   0.01991   0.02030

 Mulliken charges:
               1
     1  C   -0.136597
     2  C   -0.132145
     3  C   -0.090419
     4  C   -0.090419
     5  C   -0.132145
     6  C   -0.136597
     7  C   -0.132145
     8  C   -0.132145
     9  C   -0.136597
    10  C   -0.136597
    11  C    0.340635
    12  C   -0.179989
    13  C   -0.285324
    14  C    0.384188
    15  C   -0.137689
    16  C    0.384188
    17  H    0.038594
    18  H    0.099589
    19  H    0.106350
    20  C    0.384188
    21  C   -0.137689
    22  C    0.384188
    23  H    0.038594
    24  C   -0.285324
    25  C   -0.179989
    26  C    0.340635
    27  H    0.106350
    28  H    0.099589
    29  C   -0.195327
    30  H    0.093377
    31  C   -0.195327
    32  H    0.093377
    33  C   -0.285324
    34  C   -0.179989
    35  H    0.099589
    36  C    0.340635
    37  H    0.106350
    38  C   -0.195327
    39  H    0.093377
    40  C    0.340635
    41  C   -0.285324
    42  C   -0.179989
    43  H    0.099589
    44  C   -0.195327
    45  H    0.093377
    46  H    0.106350
 Sum of Mulliken charges =  -0.00000

 Dipole moment (field-independent basis, Debye):
    X=              0.0000    Y=             -0.0000    Z=             -0.0000  Tot=              0.0000
 Quadrupole moment (field-independent basis, Debye-Ang):
   XX=           -191.0769   YY=           -157.6065   ZZ=           -158.1316
   XY=              0.0000   XZ=             -0.0000   YZ=              0.0000

  Exact polarizability: 160.592   0.000 917.002  -0.000   0.002 529.755
 Approx polarizability: 289.486   0.0001283.611  -0.000   0.0001096.172

                      1                      2                      3
                     AU                     B3U                    B3U
 Frequencies --     56.4576                59.1358               103.6693
 Red. masses --      5.4428                 5.7273                 5.1141
 Frc consts  --      0.0102                 0.0118                 0.0324
 IR Inten    --      0.0000                 0.5728                 4.6958

                      4                      5                      6
                     B1G                    B2G                    B1G
 Frequencies --    118.7267               144.5467               187.4131
 Red. masses --      4.6859                 5.1773                 5.3725
 Frc consts  --      0.0389                 0.0637                 0.1112
 IR Inten    --      0.0000                 0.0000                 0.0000

                      7                      8                      9
                     B3U                    AU                     B2G
 Frequencies --    198.0595               249.2079               260.7283
 Red. masses --      4.3364                 4.8520                 4.8108
 Frc consts  --      0.1002                 0.1775                 0.1927
 IR Inten    --      0.0516                 0.0000                 0.0000

                     10                     11                     12
                     B1U                    B3G                    B1G
 Frequencies --    279.7362               301.8081               312.4146
 Red. masses --      5.8930                 8.5232                 4.7647
 Frc consts  --      0.2717                 0.4574                 0.2740
 IR Inten    --      5.0662                 0.0000                 0.0000

                     13                     14                     15
                     B2G                    AU                     B3U
 Frequencies --    321.1282               323.0911               324.7060
 Red. masses --      4.2336                 5.2833                 5.3498
 Frc consts  --      0.2572                 0.3249                 0.3323
 IR Inten    --      0.0000                 0.0000                 6.2549

                     16                     17                     18
                     AG                     B2U                    B3U
 Frequencies --    325.1793               393.3993               410.3199
 Red. masses --      8.6573                 6.1058                 3.8695
 Frc consts  --      0.5394                 0.5568                 0.3838
 IR Inten    --      0.0000                31.4157                 0.2667

                     19                     20                     21
                     AG                     B2U                    AU
 Frequencies --    424.8338               444.1727               450.2404
 Red. masses --      5.8905                 7.3176                 3.7168
 Frc consts  --      0.6264                 0.8506                 0.4439
 IR Inten    --      0.0000                19.1773                 0.0000

                     22                     23                     24
                     AG                     B2G                    B3G
 Frequencies --    455.8015               472.3667               480.4940
 Red. masses --      6.3596                 3.2458                 5.1115
 Frc consts  --      0.7785                 0.4267                 0.6953
 IR Inten    --      0.0000                 0.0000                 0.0000

                     25                     26                     27
                     B1U                    B1G                    B3U
 Frequencies --    503.1129               509.3521               533.6983
 Red. masses --      5.6715                 4.6442                 3.6755
 Frc consts  --      0.8458                 0.7099                 0.6168
 IR Inten    --      0.0270                 0.0000                14.2706

                     28                     29                     30
                     B3G                    B2G                    B2U
 Frequencies --    541.1394               542.5718               550.1512
 Red. masses --      5.3180                 4.5307                 5.5081
 Frc consts  --      0.9175                 0.7858                 0.9822
 IR Inten    --      0.0001                 0.0000                 0.1803

                     31                     32                     33
                     B1G                    AG                     B1U
 Frequencies --    567.2525               584.8140               593.2396
 Red. masses --      3.5941                 6.7404                 5.4393
 Frc consts  --      0.6814                 1.3582                 1.1278
 IR Inten    --      0.0000                 0.0000                 1.6446

                     34                     35                     36
                     AU                     B2G                    B3U
 Frequencies --    601.7545               615.5185               631.6800
 Red. masses --      4.8000                 5.1187                 3.6223
 Frc consts  --      1.0241                 1.1426                 0.8516
 IR Inten    --      0.0000                 0.0000                33.2191

                     37                     38                     39
                     B3G                    AU                     B1U
 Frequencies --    648.1708               649.2247               665.9787
 Red. masses --      8.5079                 3.8748                 7.2005
 Frc consts  --      2.1060                 0.9623                 1.8816
 IR Inten    --      0.0000                 0.0000                 0.5863

                     40                     41                     42
                     B2U                    B2G                    B1U
 Frequencies --    683.4641               702.6506               712.4821
 Red. masses --      8.1358                 4.3682                 7.4460
 Frc consts  --      2.2392                 1.2707                 2.2270
 IR Inten    --     23.0472                 0.0000                 0.0494

                     43                     44                     45
                     B3G                    B1G                    B3U
 Frequencies --    717.5545               740.7480               757.4469
 Red. masses --      5.0539                 2.5190                 1.3162
 Frc consts  --      1.5332                 0.8144                 0.4449
 IR Inten    --      0.0000                 0.0000                 2.8488

                     46                     47                     48
                     AG                     B2G                    B3U
 Frequencies --    764.7239               766.2504               780.7427
 Red. masses --      6.1500                 2.1239                 2.9763
 Frc consts  --      2.1190                 0.7347                 1.0689
 IR Inten    --      0.0000                 0.0000                 0.4429

                     49                     50                     51
                     B1G                    ?A                     ?A
 Frequencies --    781.8269               785.3161               788.5742
 Red. masses --      1.7939                 7.4843                 6.5194
 Frc consts  --      0.6460                 2.7195                 2.3886
 IR Inten    --      0.0000                 0.0906                 0.0102

                     52                     53                     54
                     AU                     B2G                    AU
 Frequencies --    795.3997               801.3295               815.3509
 Red. masses --      3.6244                 2.2990                 1.9573
 Frc consts  --      1.3510                 0.8698                 0.7666
 IR Inten    --      0.0000                 0.0000                 0.0000

                     55                     56                     57
                     B3U                    B1G                    B2G
 Frequencies --    833.1321               844.6116               871.8479
 Red. masses --      1.6886                 1.6249                 1.6128
 Frc consts  --      0.6906                 0.6830                 0.7223
 IR Inten    --     56.2079                 0.0000                 0.0000

                     58                     59                     60
                     B3U                    B3G                    B3G
 Frequencies --    877.6749               882.6414               896.4008
 Red. masses --      1.6892                 5.7552                 6.2420
 Frc consts  --      0.7666                 2.6417                 2.9552
 IR Inten    --    122.7046                 0.0000                 0.0000

                     61                     62                     63
                     AG                     B1U                    AU
 Frequencies --    919.8545               927.8953               938.0681
 Red. masses --      7.0963                 5.6722                 1.3665
 Frc consts  --      3.5377                 2.8774                 0.7085
 IR Inten    --      0.0000                 1.5099                 0.0000

                     64                     65                     66
                     B2G                    B1G                    B3U
 Frequencies --    938.9820               961.0239               963.2303
 Red. masses --      1.3868                 1.3545                 1.3714
 Frc consts  --      0.7204                 0.7371                 0.7497
 IR Inten    --      0.0000                 0.0000                 0.2267

                     67                     68                     69
                     AU                     B2G                    B2U
 Frequencies --    964.0617               965.8943               981.9552
 Red. masses --      1.3758                 1.3879                 4.6072
 Frc consts  --      0.7534                 0.7629                 2.6174
 IR Inten    --      0.0000                 0.0000                11.4792

                     70                     71                     72
                     AG                     B2U                    B1U
 Frequencies --   1063.1090              1078.5658              1087.6325
 Red. masses --      5.0260                 2.6160                 4.1276
 Frc consts  --      3.3468                 1.7930                 2.8768
 IR Inten    --      0.0000                 5.9584                15.3219

                     73                     74                     75
                     B3G                    B3G                    ?B
 Frequencies --   1134.1884              1142.3793              1156.8660
 Red. masses --      2.7443                 1.5320                 1.5232
 Frc consts  --      2.0800                 1.1779                 1.2011
 IR Inten    --      0.0000                 0.0000                 0.0066

                     76                     77                     78
                     ?B                     B1U                    AG
 Frequencies --   1157.2232              1171.9588              1175.6175
 Red. masses --      1.4956                 1.3383                 1.4516
 Frc consts  --      1.1800                 1.0830                 1.1820
 IR Inten    --     12.1011                31.8377                 0.0000

                     79                     80                     81
                     B2U                    B3G                    B2U
 Frequencies --   1180.4625              1197.3650              1221.7306
 Red. masses --      1.6077                 2.2308                 2.0790
 Frc consts  --      1.3200                 1.8844                 1.8283
 IR Inten    --     39.9765                 0.0000                 1.6471

                     82                     83                     84
                     AG                     B1U                    B3G
 Frequencies --   1234.6516              1239.7443              1248.8833
 Red. masses --      2.2469                 2.1302                 1.7647
 Frc consts  --      2.0180                 1.9290                 1.6217
 IR Inten    --      0.0000                 0.0021                 0.0000

                     85                     86                     87
                     B2U                    AG                     B1U
 Frequencies --   1259.5036              1277.1769              1291.1297
 Red. masses --      2.4662                 4.1652                 2.6460
 Frc consts  --      2.3050                 4.0030                 2.5989
 IR Inten    --     17.8858                 0.0000                 4.9187

                     88                     89                     90
                     B3G                    B1U                    B3G
 Frequencies --   1323.2710              1327.1594              1338.3657
 Red. masses --      3.7103                 5.5218                 7.9670
 Frc consts  --      3.8279                 5.7303                 8.4081
 IR Inten    --      0.0000                55.0366                81.9036

                     91                     92                     93
                     B3G                    B3G                    B3G
 Frequencies --   1345.5899              1364.0901              1383.1949
 Red. masses --      3.2236                 4.3934                 8.9828
 Frc consts  --      3.4388                 4.8165                10.1258
 IR Inten    --      0.0002                 0.0000                 1.6342

                     94                     95                     96
                     B3G                    B3G                    B3G
 Frequencies --   1383.3316              1391.2359              1397.0637
 Red. masses --      4.9134                 8.4954                 3.1669
 Frc consts  --      5.5397                 9.6880                 3.6418
 IR Inten    --     16.2308                 0.0004                 0.1399

                     97                     98                     99
                     B1U                    ?C                     ?C
 Frequencies --   1403.4359              1421.4925              1423.7131
 Red. masses --      5.0407                 4.0216                 3.3543
 Frc consts  --      5.8497                 4.7878                 4.0058
 IR Inten    --      3.0062                 0.3482                 0.0000

                    100                    101                    102
                     ?C                     B3G                    B2U
 Frequencies --   1433.4832              1447.9631              1460.5690
 Red. masses --      7.5729                 1.6543                 2.0735
 Frc consts  --      9.1685                 2.0435                 2.6061
 IR Inten    --      0.0000                 0.0000                17.0911

                    103                    104                    105
                     B1U                    B1U                    AG
 Frequencies --   1471.3673              1476.5127              1481.6953
 Red. masses --      2.1357                 5.9612                 4.5564
 Frc consts  --      2.7241                 7.6570                 5.8938
 IR Inten    --     11.8821                 1.0945                 0.0000

                    106                    107                    108
                     B3G                    B3G                    AG
 Frequencies --   1481.9633              1504.7263              1508.9255
 Red. masses --      6.5541                 6.9374                 3.3071
 Frc consts  --      8.4808                 9.2547                 4.4364
 IR Inten    --      0.0000                 0.0000                 0.0000

                    109                    110                    111
                     B3G                    B1U                    B1U
 Frequencies --   1523.3905              1547.9449              1552.1005
 Red. masses --      3.4421                 3.6066                 6.5713
 Frc consts  --      4.7065                 5.0916                 9.3270
 IR Inten    --      0.0000                 2.5239                14.2565

                    112                    113                    114
                     B2U                    B2U                    B3G
 Frequencies --   1557.2370              1573.3910              1593.3265
 Red. masses --      5.9984                 4.5708                 4.9689
 Frc consts  --      8.5703                 6.6668                 7.4323
 IR Inten    --     23.4375                 6.6452                 0.0000

                    115                    116                    117
                     AG                     AG                     ?A
 Frequencies --   1605.5889              1623.5123              1752.9136
 Red. masses --      5.3223                 8.4839                 8.9966
 Frc consts  --      8.0839                13.1752                16.2873
 IR Inten    --      0.0000                 0.0000               683.6351

                    118                    119                    120
                     ?A                     B1U                    B3G
 Frequencies --   1766.2197              3165.4578              3166.0284
 Red. masses --     10.4272                 1.0862                 1.0862
 Frc consts  --     19.1650                 6.4123                 6.4152
 IR Inten    --    202.4557                 6.9275                 0.0000

                    121                    122                    123
                     AG                     B1U                    B2U
 Frequencies --   3166.3394              3167.4984              3168.4638
 Red. masses --      1.0869                 1.0872                 1.0876
 Frc consts  --      6.4201                 6.4270                 6.4328
 IR Inten    --      0.0000                16.4530                 0.7000

                    124                    125                    126
                     B3G                    B1U                    AG
 Frequencies --   3168.6720              3171.2793              3171.5436
 Red. masses --      1.0867                 1.0884                 1.0889
 Frc consts  --      6.4287                 6.4491                 6.4531
 IR Inten    --      0.0000                 8.5068                 0.0000

                    127                    128                    129
                     AG                     B2U                    B3G
 Frequencies --   3182.9445              3184.4289              3184.7443
 Red. masses --      1.0942                 1.0957                 1.0942
 Frc consts  --      6.5313                 6.5466                 6.5390
 IR Inten    --      0.0000                81.1424                 0.0003

                    130                    131                    132
                     B1U                    B2U                    AG
 Frequencies --   3185.3735              3185.9908              3186.2611
 Red. masses --      1.0946                 1.0945                 1.0937
 Frc consts  --      6.5438                 6.5457                 6.5422
 IR Inten    --     84.3012                33.3470                 0.0001

 - Thermochemistry -
 -------------------
 Temperature   298.150 Kelvin.  Pressure   1.00000 Atm.
 Atom     1 has atomic number  6 and mass  12.00000

 Molecular mass:   398.10955 amu.
 Principal axes and moments of inertia in atomic units:
                           1         2         3
     Eigenvalues --  7556.57599********************
           X           -0.00000   0.00000   1.00000
           Y            1.00000   0.00000   0.00000
           Z           -0.00000   1.00000   0.00000
 This molecule is an asymmetric top.
 Rotational symmetry number  4.
 Warning -- assumption of classical behavior for rotation
           may cause significant error
 Rotational temperatures (Kelvin)      0.01146     0.00709     0.00438
 Rotational constants (GHZ):           0.23883     0.14763     0.09124
 Zero-point vibrational energy     912956.6 (Joules/Mol)
                                  218.20186 (Kcal/Mol)
 Warning -- explicit consideration of  35 degrees of freedom as
           vibrations may cause significant error
 Vibrational temperatures:     81.23    85.08   149.16   170.82   207.97
          (Kelvin)            269.65   284.96   358.55   375.13   402.48
                              434.23   449.49   462.03   464.86   467.18
                              467.86   566.01   590.36   611.24   639.07
                              647.80   655.80   679.63   691.32   723.87
                              732.84   767.87   778.58   780.64   791.54
                              816.15   841.42   853.54   865.79   885.59
                              908.85   932.57   934.09   958.19   983.35
                             1010.96  1025.10  1032.40  1065.77  1089.80
                             1100.27  1102.46  1123.31  1124.87  1129.89
                             1134.58  1144.40  1152.93  1173.11  1198.69
                             1215.21  1254.39  1262.78  1269.92  1289.72
                             1323.47  1335.03  1349.67  1350.99  1382.70
                             1385.87  1387.07  1389.71  1412.81  1529.58
                             1551.82  1564.86  1631.84  1643.63  1664.47
                             1664.99  1686.19  1691.45  1698.42  1722.74
                             1757.80  1776.39  1783.72  1796.86  1812.14
                             1837.57  1857.65  1903.89  1909.49  1925.61
                             1936.00  1962.62  1990.11  1990.31  2001.68
                             2010.06  2019.23  2045.21  2048.41  2062.46
                             2083.30  2101.43  2116.97  2124.37  2131.83
                             2132.21  2164.97  2171.01  2191.82  2227.15
                             2233.13  2240.52  2263.76  2292.44  2310.08
                             2335.87  2522.05  2541.20  4554.39  4555.21
                             4555.66  4557.32  4558.71  4559.01  4562.76
                             4563.14  4579.55  4581.68  4582.14  4583.04
                             4583.93  4584.32

 Zero-point correction=                           0.347727 (Hartree/Particle)
 Thermal correction to Energy=                    0.366631
 Thermal correction to Enthalpy=                  0.367575
 Thermal correction to Gibbs Free Energy=         0.304197
 Sum of electronic and zero-point Energies=          -1227.980011
 Sum of electronic and thermal Energies=             -1227.961107
 Sum of electronic and thermal Enthalpies=           -1227.960162
 Sum of electronic and thermal Free Energies=        -1228.023541

                     E (Thermal)             CV                S
                      KCal/Mol        Cal/Mol-Kelvin    Cal/Mol-Kelvin
 Total                  230.064             86.169            133.391
 Electronic               0.000              0.000              0.000
 Translational            0.889              2.981             43.836
 Rotational               0.889              2.981             33.101
 Vibrational            228.287             80.208             56.454
 Vibration     1          0.596              1.975              4.577
 Vibration     2          0.597              1.974              4.486
 Vibration     3          0.605              1.946              3.384
 Vibration     4          0.609              1.934              3.121
 Vibration     5          0.616              1.909              2.743
 Vibration     6          0.632              1.857              2.253
 Vibration     7          0.637              1.843              2.151
 Vibration     8          0.662              1.764              1.736
 Vibration     9          0.669              1.745              1.657
 Vibration    10          0.680              1.711              1.535
 Vibration    11          0.694              1.670              1.407
 Vibration    12          0.701              1.650              1.350
 Vibration    13          0.707              1.633              1.304
 Vibration    14          0.708              1.629              1.294
 Vibration    15          0.709              1.626              1.286
 Vibration    16          0.709              1.625              1.284
 Vibration    17          0.761              1.484              0.987
 Vibration    18          0.774              1.448              0.925
 Vibration    19          0.787              1.416              0.876
 Vibration    20          0.804              1.374              0.814
 Vibration    21          0.809              1.360              0.795
 Vibration    22          0.814              1.348              0.778
 Vibration    23          0.829              1.311              0.731
 Vibration    24          0.837              1.293              0.709
 Vibration    25          0.858              1.243              0.650
 Vibration    26          0.865              1.229              0.635
 Vibration    27          0.889              1.175              0.579
 Vibration    28          0.896              1.159              0.563
 Vibration    29          0.898              1.156              0.560
 Vibration    30          0.905              1.139              0.544
 Vibration    31          0.923              1.102              0.510
 Vibration    32          0.942              1.064              0.477
 Vibration    33          0.951              1.046              0.461
 Vibration    34          0.960              1.028              0.447
 Vibration    35          0.975              0.999              0.424

 Optimization completed.
    -- Stationary point found.
 Normal termination of Gaussian 16 at Tue Mar 14 01:36:33 2023.
