 Gaussian 16, Revision A.03,
 Gaussian 16:  ES64L-G16RevA.03 25-Dec-2016

 ----------------------------------------------------------------------
 # opt=tight freq=(savenormalmodes,hpmodes) td=(nstates=10,root=2) b3ly
 p/6-311++g(2d,2p) geom=connectivity empiricaldispersion=gd3bj
 ----------------------------------------------------------------------

 ---------------------------------------------------------
 Ovalene excited state optimization + freq with dispersion
 ---------------------------------------------------------
 Symbolic Z-matrix:
 Charge =  0 Multiplicity = 1

 SCF Done:  E(RB3LYP) =  -1228.45992078     A.U. after   13 cycles
 Total Energy, E(TD-HF/TD-DFT) =  -1228.35949544
 Optimization completed.
    -- Stationary point found.
 Normal termination of Gaussian 16 at Mon Feb 27 17:09:19 2023.

 ----------------------------------------------------------------------
 #N Geom=AllCheck Guess=TCheck SCRF=Check GenChk RB3LYP TD(FC,Read)/6-3
 11++G(2d,2p) Freq
 ----------------------------------------------------------------------

 Structure from the checkpoint file:  "ovalene-excited-2-opt-freq-disp.chk"
 ---------------------------------------------------------
 Ovalene excited state optimization + freq with dispersion
 ---------------------------------------------------------
 Charge =  0 Multiplicity = 1

                         Standard orientation:
 ---------------------------------------------------------------------
 Center     Atomic      Atomic             Coordinates (Angstroms)
 Number     Number       Type             X           Y           Z
 ---------------------------------------------------------------------
      1          6           0        0.000000    2.451090    0.713610
      2          6           0        0.000000    1.231452    1.418023
      3          6           0       -0.000000    0.000000    0.708545
      4          6           0        0.000000    0.000000   -0.708545
      5          6           0        0.000000    1.231452   -1.418023
      6          6           0        0.000000    2.451090   -0.713610
      7          6           0       -0.000000   -1.231452    1.418023
      8          6           0       -0.000000   -1.231452   -1.418023
      9          6           0       -0.000000   -2.451090   -0.713610
     10          6           0       -0.000000   -2.451090    0.713610
     11          6           0        0.000000   -3.691992   -1.424042
     12          6           0        0.000000   -3.658867   -2.847556
     13          6           0        0.000000   -2.474912   -3.534351
     14          6           0        0.000000   -1.225152   -2.856571
     15          6           0        0.000000    0.000000   -3.535168
     16          6           0        0.000000    1.225152   -2.856571
     17          1           0        0.000000    0.000000   -4.617405
     18          1           0        0.000000   -4.597217   -3.385569
     19          1           0        0.000000   -2.475693   -4.616008
     20          6           0        0.000000    1.225152    2.856571
     21          6           0       -0.000000   -0.000000    3.535168
     22          6           0       -0.000000   -1.225152    2.856571
     23          1           0       -0.000000   -0.000000    4.617405
     24          6           0       -0.000000   -2.474912    3.534351
     25          6           0       -0.000000   -3.658867    2.847556
     26          6           0       -0.000000   -3.691992    1.424042
     27          1           0       -0.000000   -2.475693    4.616008
     28          1           0       -0.000000   -4.597217    3.385569
     29          6           0        0.000000   -4.895022   -0.693256
     30          1           0        0.000000   -5.832963   -1.231614
     31          6           0       -0.000000   -4.895022    0.693256
     32          1           0       -0.000000   -5.832963    1.231614
     33          6           0        0.000000    2.474912   -3.534351
     34          6           0        0.000000    3.658867   -2.847556
     35          1           0        0.000000    4.597217   -3.385569
     36          6           0        0.000000    3.691992   -1.424042
     37          1           0        0.000000    2.475693   -4.616008
     38          6           0        0.000000    4.895022   -0.693256
     39          1           0        0.000000    5.832963   -1.231614
     40          6           0        0.000000    3.691992    1.424042
     41          6           0        0.000000    2.474912    3.534351
     42          6           0        0.000000    3.658867    2.847556
     43          1           0        0.000000    4.597217    3.385569
     44          6           0        0.000000    4.895022    0.693256
     45          1           0        0.000000    5.832963    1.231614
     46          1           0        0.000000    2.475693    4.616008
 ---------------------------------------------------------------------

 SCF Done:  E(RB3LYP) =  -1228.45992078     A.U. after    1 cycles

 Excitation energies and oscillator strengths:

 Excited State   1:      Singlet-B1U    2.6141 eV  474.30 nm  f=0.1520  <S**2>=0.000
     102 ->105        -0.17793
     103 ->104         0.68125

 Excited State   2:      Singlet-B2U    2.7327 eV  453.70 nm  f=0.0000  <S**2>=0.000
     102 ->104         0.49893
     103 ->105         0.49855
 This state for optimization and/or second-order correction.
 Total Energy, E(TD-HF/TD-DFT) =  -1228.35949543
 Copying the excited state density for this state as the 1-particle RhoCI density.

 Excited State   3:      Singlet-B3G    3.3433 eV  370.84 nm  f=0.0000  <S**2>=0.000
     101 ->104         0.18819
     103 ->106         0.67550

 Excited State   4:      Singlet-B3G    3.4902 eV  355.24 nm  f=0.0000  <S**2>=0.000
     101 ->104         0.67324
     103 ->106        -0.18647

 Excited State   5:      Singlet-AG     3.5647 eV  347.81 nm  f=0.0000  <S**2>=0.000
     100 ->104        -0.16685
     103 ->107         0.67419

 Excited State   6:      Singlet-B2U    3.6035 eV  344.07 nm  f=1.0608  <S**2>=0.000
     100 ->106         0.11329
     101 ->107        -0.11663
     102 ->104        -0.48266
     103 ->105         0.48335

 Excited State   7:      Singlet-B1U    3.7875 eV  327.35 nm  f=0.3181  <S**2>=0.000
     101 ->106         0.12377
     102 ->105         0.66711
     103 ->104         0.15907

 Excited State   8:      Singlet-AG     3.8773 eV  319.77 nm  f=0.0000  <S**2>=0.000
     100 ->104         0.57786
     102 ->106         0.36606
     103 ->107         0.10136

 Excited State   9:      Singlet-AG     3.9373 eV  314.90 nm  f=0.0000  <S**2>=0.000
      99 ->104         0.20511
     100 ->104         0.28137
     101 ->105         0.45331
     102 ->106        -0.37018
     103 ->107         0.13015

 Excited State  10:      Singlet-B1U    4.0168 eV  308.66 nm  f=0.0003  <S**2>=0.000
      97 ->104         0.10175
     103 ->108         0.69282

 The electronic state is 1-AG.
 Alpha  occ. eigenvalues --  -10.19274 -10.19233 -10.19221 -10.19219 -10.19217
 Alpha  occ. eigenvalues --  -10.19216 -10.19159 -10.19157 -10.19147 -10.19137
 Alpha  occ. eigenvalues --  -10.19114 -10.19109 -10.19104 -10.19101 -10.19074
 Alpha  occ. eigenvalues --  -10.19073 -10.19058 -10.19057 -10.18257 -10.18257
 Alpha  occ. eigenvalues --  -10.18257 -10.18256 -10.18247 -10.18247 -10.18237
 Alpha  occ. eigenvalues --  -10.18237 -10.18187 -10.18187 -10.18174 -10.18173
 Alpha  occ. eigenvalues --  -10.18173 -10.18173  -0.91993  -0.89562  -0.88384
 Alpha  occ. eigenvalues --   -0.85888  -0.85597  -0.83125  -0.81732  -0.81143
 Alpha  occ. eigenvalues --   -0.79689  -0.77008  -0.76460  -0.76236  -0.74568
 Alpha  occ. eigenvalues --   -0.73494  -0.72081  -0.70823  -0.65268  -0.64933
 Alpha  occ. eigenvalues --   -0.64897  -0.64349  -0.64270  -0.62549  -0.58901
 Alpha  occ. eigenvalues --   -0.58027  -0.57631  -0.55640  -0.54551  -0.54292
 Alpha  occ. eigenvalues --   -0.54047  -0.50774  -0.50229  -0.48942  -0.48866
 Alpha  occ. eigenvalues --   -0.48809  -0.47799  -0.46452  -0.44965  -0.44329
 Alpha  occ. eigenvalues --   -0.44117  -0.43976  -0.43908  -0.43182  -0.42698
 Alpha  occ. eigenvalues --   -0.42626  -0.41713  -0.41274  -0.40824  -0.40046
 Alpha  occ. eigenvalues --   -0.40012  -0.39931  -0.38776  -0.37611  -0.37318
 Alpha  occ. eigenvalues --   -0.37075  -0.36694  -0.36599  -0.35898  -0.34640
 Alpha  occ. eigenvalues --   -0.34191  -0.32376  -0.32176  -0.31907  -0.31700
 Alpha  occ. eigenvalues --   -0.30189  -0.27459  -0.26729  -0.26386  -0.25000
 Alpha  occ. eigenvalues --   -0.23792  -0.21391  -0.19163
 Alpha virt. eigenvalues --   -0.08726  -0.06462  -0.04440  -0.03750  -0.02038
 Alpha virt. eigenvalues --   -0.01959  -0.01151  -0.00852  -0.00413  -0.00323
 Alpha virt. eigenvalues --    0.00594   0.00653   0.01895   0.01993   0.02122

 Mulliken charges:
               1
     1  C   -0.137217
     2  C   -0.133813
     3  C   -0.090545
     4  C   -0.090545
     5  C   -0.133813
     6  C   -0.137217
     7  C   -0.133813
     8  C   -0.133813
     9  C   -0.137217
    10  C   -0.137217
    11  C    0.338856
    12  C   -0.175967
    13  C   -0.283386
    14  C    0.380628
    15  C   -0.136935
    16  C    0.380628
    17  H    0.037512
    18  H    0.099284
    19  H    0.106470
    20  C    0.380628
    21  C   -0.136935
    22  C    0.380628
    23  H    0.037512
    24  C   -0.283386
    25  C   -0.175967
    26  C    0.338856
    27  H    0.106470
    28  H    0.099284
    29  C   -0.193445
    30  H    0.093573
    31  C   -0.193445
    32  H    0.093573
    33  C   -0.283386
    34  C   -0.175967
    35  H    0.099284
    36  C    0.338856
    37  H    0.106470
    38  C   -0.193445
    39  H    0.093573
    40  C    0.338856
    41  C   -0.283386
    42  C   -0.175967
    43  H    0.099284
    44  C   -0.193445
    45  H    0.093573
    46  H    0.106470
 Sum of Mulliken charges =  -0.00000

 Dipole moment (field-independent basis, Debye):
    X=              0.0000    Y=             -0.0000    Z=             -0.0000  Tot=              0.0000
 Quadrupole moment (field-independent basis, Debye-Ang):
   XX=           -191.0459   YY=           -157.6553   ZZ=           -158.1528
   XY=              0.0000   XZ=             -0.0000   YZ=             -0.0000

  Exact polarizability: 159.121   0.000 764.731  -0.000   0.000 565.273
 Approx polarizability: 289.386   0.0001298.429  -0.000  -0.0001105.040

                      1                      2                      3
                     B3G                    B3G                    B3G
 Frequencies --     57.8169                59.6208               104.0185
 Red. masses --      5.4345                 5.7157                 5.0914
 Frc consts  --      0.0107                 0.0120                 0.0325
 IR Inten    --      0.0010                 0.6305                 4.6255

                      4                      5                      6
                     B1G                    B2G                    ?A
 Frequencies --    119.4349               146.8214               188.7728
 Red. masses --      4.6893                 5.1675                 5.3471
 Frc consts  --      0.0394                 0.0656                 0.1123
 IR Inten    --      0.0000                 0.0000                 0.0000

                      7                      8                      9
                     ?A                     ?B                     ?B
 Frequencies --    200.4744               252.7513               260.4704
 Red. masses --      4.3695                 4.8313                 4.8428
 Frc consts  --      0.1035                 0.1818                 0.1936
 IR Inten    --      0.0616                 0.0000                 0.0000

                     10                     11                     12
                     B1U                    ?C                     B3G
 Frequencies --    280.4824               316.5980               320.1361
 Red. masses --      5.8973                 4.7874                 8.5362
 Frc consts  --      0.2733                 0.2827                 0.5154
 IR Inten    --      8.6625                 0.0001                 0.0000

                     13                     14                     15
                     AG                     ?C                     ?C
 Frequencies --    325.7263               326.1081               326.6982
 Red. masses --      8.6519                 5.3970                 4.2271
 Frc consts  --      0.5408                 0.3382                 0.2658
 IR Inten    --      0.0000                 6.3195                 0.0207

                     16                     17                     18
                     ?C                     B2U                    ?D
 Frequencies --    326.7892               396.4095               419.9154
 Red. masses --      5.2577                 6.1192                 3.8585
 Frc consts  --      0.3308                 0.5665                 0.4009
 IR Inten    --      0.0081                13.4551                 0.1144

                     19                     20                     21
                     AG                     B2U                    ?D
 Frequencies --    425.7755               427.2645               454.8278
 Red. masses --      5.8931                 7.6012                 3.6460
 Frc consts  --      0.6294                 0.8176                 0.4444
 IR Inten    --      0.0000                 1.9474                 0.0000

                     22                     23                     24
                     AG                     ?D                     B3G
 Frequencies --    456.7989               478.7046               485.0707
 Red. masses --      6.3221                 3.2578                 5.1344
 Frc consts  --      0.7773                 0.4399                 0.7118
 IR Inten    --      0.0000                 0.0000                 0.0000

                     25                     26                     27
                     B1U                    B1G                    ?E
 Frequencies --    491.1210               513.6468               538.0671
 Red. masses --      6.2648                 4.6397                 3.7212
 Frc consts  --      0.8903                 0.7212                 0.6348
 IR Inten    --      0.0978                 0.0000                14.4292

                     28                     29                     30
                     B3G                    B2U                    ?E
 Frequencies --    543.6937               545.4268               545.5381
 Red. masses --      5.2557                 5.3495                 4.4880
 Frc consts  --      0.9154                 0.9376                 0.7870
 IR Inten    --      0.0000                 2.3072                 0.0000

                     31                     32                     33
                     B1G                    B1U                    AG
 Frequencies --    570.2198               583.4905               587.7054
 Red. masses --      3.6005                 4.9435                 6.7567
 Frc consts  --      0.6898                 0.9916                 1.3750
 IR Inten    --      0.0000                 0.4689                 0.0000

                     34                     35                     36
                     ?D                     B2G                    ?D
 Frequencies --    606.5092               626.8053               634.2936
 Red. masses --      4.7683                 4.8813                 3.6467
 Frc consts  --      1.0334                 1.1299                 0.8644
 IR Inten    --      0.0006                 0.0000                32.7704

                     37                     38                     39
                     B3G                    ?D                     B1U
 Frequencies --    650.4539               654.3464               666.5033
 Red. masses --      8.3888                 3.9146                 7.2534
 Frc consts  --      2.0911                 0.9875                 1.8984
 IR Inten    --      0.0000                 0.0008                 0.0157

                     40                     41                     42
                     B2U                    B2G                    B1U
 Frequencies --    683.1133               712.5908               714.8450
 Red. masses --      8.0201                 4.5604                 7.4443
 Frc consts  --      2.2050                 1.3644                 2.2413
 IR Inten    --      2.3757                 0.0000                 2.5653

                     43                     44                     45
                     B3G                    B1G                    B3U
 Frequencies --    720.7631               744.2330               761.4034
 Red. masses --      5.1163                 2.4809                 1.3323
 Frc consts  --      1.5660                 0.8096                 0.4551
 IR Inten    --      0.0000                 0.0002                 2.1220

                     46                     47                     48
                     AG                     B2G                    B1U
 Frequencies --    767.8674               773.4460               779.3238
 Red. masses --      6.1551                 2.3175                 7.6047
 Frc consts  --      2.1383                 0.8168                 2.7212
 IR Inten    --      0.0000                 0.0000                 2.2665

                     49                     50                     51
                     ?F                     ?F                     B2U
 Frequencies --    787.0762               787.9370               790.6185
 Red. masses --      1.8305                 3.0572                 6.3311
 Frc consts  --      0.6681                 1.1183                 2.3317
 IR Inten    --      0.0009                 0.4870                 0.7439

                     52                     53                     54
                     ?F                     B2G                    AU
 Frequencies --    801.4065               805.6641               820.0439
 Red. masses --      4.2941                 2.1632                 1.8213
 Frc consts  --      1.6249                 0.8273                 0.7216
 IR Inten    --      0.0002                 0.0001                 0.0003

                     55                     56                     57
                     B3U                    B1G                    B2G
 Frequencies --    834.8621               845.9371               882.4119
 Red. masses --      1.6609                 1.6162                 1.5786
 Frc consts  --      0.6821                 0.6814                 0.7242
 IR Inten    --     69.4020                 0.0000                 0.0000

                     58                     59                     60
                     B3U                    B3G                    B3G
 Frequencies --    886.8537               894.1540               901.6007
 Red. masses --      1.6517                 5.6804                 6.3584
 Frc consts  --      0.7654                 2.6758                 3.0453
 IR Inten    --    108.1987                 0.0000                 0.0000

                     61                     62                     63
                     AG                     B1U                    ?B
 Frequencies --    917.0358               928.8497               936.3796
 Red. masses --      7.1332                 5.7034                 1.3789
 Frc consts  --      3.5343                 2.8992                 0.7123
 IR Inten    --      0.0000                 0.9102                 0.0000

                     64                     65                     66
                     ?B                     ?C                     ?C
 Frequencies --    937.3528               965.9928               968.0472
 Red. masses --      1.3987                 1.3505                 1.3651
 Frc consts  --      0.7241                 0.7425                 0.7537
 IR Inten    --      0.0000                 0.0000                 0.0000

                     67                     68                     69
                     ?C                     ?C                     B2U
 Frequencies --    968.5554               970.0996               988.6102
 Red. masses --      1.3683                 1.3802                 4.5408
 Frc consts  --      0.7563                 0.7653                 2.6148
 IR Inten    --      0.3260                 0.0001                 2.3970

                     70                     71                     72
                     AG                     B1U                    B2U
 Frequencies --   1065.5477              1083.8258              1088.6030
 Red. masses --      4.9022                 4.5927                 2.4186
 Frc consts  --      3.2793                 3.1786                 1.6887
 IR Inten    --      0.0000                 0.4052                 0.0008

                     73                     74                     75
                     B3G                    B2U                    AG
 Frequencies --   1140.2742              1154.2357              1156.1211
 Red. masses --      2.3914                 1.4222                 1.5108
 Frc consts  --      1.8320                 1.1163                 1.1897
 IR Inten    --      0.0000                 5.9626                 0.0000

                     76                     77                     78
                     B3G                    B1U                    AG
 Frequencies --   1174.9543              1175.1177              1178.4942
 Red. masses --      1.6190                 1.2793                 1.4961
 Frc consts  --      1.3168                 1.0408                 1.2242
 IR Inten    --      0.0000                10.0399                 0.0000

                     79                     80                     81
                     B2U                    B3G                    B2U
 Frequencies --   1199.4965              1227.7436              1232.2341
 Red. masses --      1.5299                 1.4915                 2.1047
 Frc consts  --      1.2969                 1.3246                 1.8829
 IR Inten    --      4.4519                 0.0000                 8.6646

                     82                     83                     84
                     AG                     B1U                    B3G
 Frequencies --   1239.3210              1247.2472              1251.4380
 Red. masses --      2.1208                 1.9231                 1.7687
 Frc consts  --      1.9192                 1.7626                 1.6320
 IR Inten    --      0.0000                 0.1490                 0.0000

                     85                     86                     87
                     B2U                    B1U                    AG
 Frequencies --   1262.5094              1280.0517              1286.9742
 Red. masses --      2.5592                 3.6159                 4.0128
 Frc consts  --      2.4033                 3.4908                 3.9159
 IR Inten    --     17.0201                12.1711                 0.0000

                     88                     89                     90
                     B1U                    B3G                    B2U
 Frequencies --   1326.0609              1345.0828              1346.1309
 Red. masses --      4.5620                 3.3900                10.6838
 Frc consts  --      4.7264                 3.6137                11.4064
 IR Inten    --     15.0496                 0.0000                19.3398

                     91                     92                     93
                     AG                     B2U                    B1U
 Frequencies --   1349.8899              1356.7750              1374.6815
 Red. masses --      3.1385                 6.2244                 5.2756
 Frc consts  --      3.3695                 6.7509                 5.8739
 IR Inten    --      0.0000                 2.1830                22.2719

                     94                     95                     96
                     AG                     AG                     B2U
 Frequencies --   1389.6678              1395.6473              1400.9715
 Red. masses --     10.1466                 9.0415                 3.7916
 Frc consts  --     11.5449                10.3763                 4.3846
 IR Inten    --      0.0000                 0.0000                 0.4386

                     97                     98                     99
                     B3G                    B2U                    AG
 Frequencies --   1402.0842              1431.5030              1443.6333
 Red. masses --      8.3368                 5.6628                 7.6339
 Frc consts  --      9.6560                 6.8370                 9.3736
 IR Inten    --      0.0000                 3.4100                 0.0000

                    100                    101                    102
                     B3G                    B1U                    B3G
 Frequencies --   1448.6738              1451.7073              1463.2220
 Red. masses --      1.6303                 4.8951                 6.8559
 Frc consts  --      2.0158                 6.0781                 8.6483
 IR Inten    --      0.0000                 0.1941                 0.0000

                    103                    104                    105
                     B2U                    B1U                    B2U
 Frequencies --   1464.7416              1476.5304              1484.9959
 Red. masses --      2.0420                 2.2916                 4.5502
 Frc consts  --      2.5813                 2.9435                 5.9119
 IR Inten    --      6.9993                 1.1175                 4.1134

                    106                    107                    108
                     AG                     AG                     B3G
 Frequencies --   1490.3876              1517.7194              1521.5391
 Red. masses --      4.0056                 3.8941                 4.8254
 Frc consts  --      5.2422                 5.2849                 6.5819
 IR Inten    --      0.0000                 0.0000                 0.0000

                    109                    110                    111
                     B3G                    B1U                    B1U
 Frequencies --   1529.0411              1537.8828              1551.6028
 Red. masses --      4.0366                 9.0166                 3.6399
 Frc consts  --      5.5604                12.5643                 5.1629
 IR Inten    --      0.0000                 1.0222                12.7951

                    112                    113                    114
                     B2U                    B2U                    B3G
 Frequencies --   1581.7797              1590.1420              1597.1228
 Red. masses --      4.4944                 5.9978                 5.0436
 Frc consts  --      6.6255                 8.9354                 7.5799
 IR Inten    --      8.1243                14.1540                 0.0000

                    115                    116                    117
                     B1U                    AG                     AG
 Frequencies --   1608.3913              1610.7161              1641.5879
 Red. masses --      6.7030                 5.5079                 8.5995
 Frc consts  --     10.2164                 8.4193                13.6538
 IR Inten    --     23.5617                 0.0000                 0.0000

                    118                    119                    120
                     B3G                    B1U                    AG
 Frequencies --   1660.8257              3166.0621              3166.3554
 Red. masses --      8.1892                 1.0870                 1.0873
 Frc consts  --     13.3089                 6.4195                 6.4227
 IR Inten    --      0.0000                 0.0542                 0.0000

                    121                    122                    123
                     B3G                    B2U                    B1U
 Frequencies --   3167.2340              3167.6123              3169.4336
 Red. masses --      1.0862                 1.0862                 1.0879
 Frc consts  --      6.4198                 6.4212                 6.4390
 IR Inten    --      0.0000                11.1654                35.4308

                    124                    125                    126
                     AG                     B1U                    B3G
 Frequencies --   3170.1507              3171.4493              3171.9116
 Red. masses --      1.0884                 1.0874                 1.0875
 Frc consts  --      6.4448                 6.4440                 6.4466
 IR Inten    --      0.0000                 1.8675                 0.0000

                    127                    128                    129
                     B2U                    AG                     B3G
 Frequencies --   3184.0359              3184.4665              3185.0364
 Red. masses --      1.0944                 1.0944                 1.0943
 Frc consts  --      6.5369                 6.5387                 6.5407
 IR Inten    --      4.5124                 0.0000                 0.0000

                    130                    131                    132
                     B1U                    B2U                    AG
 Frequencies --   3185.2526              3187.1494              3187.7513
 Red. masses --      1.0942                 1.0931                 1.0934
 Frc consts  --      6.5409                 6.5422                 6.5466
 IR Inten    --     92.2640               105.4455                 0.0000

 - Thermochemistry -
 -------------------
 Temperature   298.150 Kelvin.  Pressure   1.00000 Atm.
 Atom     1 has atomic number  6 and mass  12.00000

 Molecular mass:   398.10955 amu.
 Principal axes and moments of inertia in atomic units:
                           1         2         3
     Eigenvalues --  7552.94422********************
           X            0.00000   0.00000   1.00000
           Y            1.00000   0.00000  -0.00000
           Z           -0.00000   1.00000   0.00000
 This molecule is an asymmetric top.
 Rotational symmetry number  4.
 Warning -- assumption of classical behavior for rotation
           may cause significant error
 Rotational temperatures (Kelvin)      0.01147     0.00709     0.00438
 Rotational constants (GHZ):           0.23895     0.14772     0.09128
 Zero-point vibrational energy     914492.5 (Joules/Mol)
                                  218.56896 (Kcal/Mol)
 Warning -- explicit consideration of  34 degrees of freedom as
           vibrations may cause significant error
 Vibrational temperatures:     83.19    85.78   149.66   171.84   211.24
          (Kelvin)            271.60   288.44   363.65   374.76   403.55
                              455.51   460.60   468.65   469.20   470.05
                              470.18   570.34   604.16   612.60   614.74
                              654.40   657.23   688.75   697.91   706.61
                              739.02   774.16   782.25   784.75   784.91
                              820.42   839.51   845.58   872.63   901.83
                              912.61   935.86   941.46   958.95   982.85
                             1025.26  1028.50  1037.02  1070.79  1095.49
                             1104.79  1112.82  1121.27  1132.43  1133.67
                             1137.52  1153.05  1159.17  1179.86  1201.18
                             1217.11  1269.59  1275.98  1286.49  1297.20
                             1319.41  1336.41  1347.24  1348.64  1389.85
                             1392.80  1393.54  1395.76  1422.39  1533.09
                             1559.38  1566.26  1640.60  1660.69  1663.40
                             1690.50  1690.73  1695.59  1725.81  1766.45
                             1772.91  1783.11  1794.51  1800.54  1816.47
                             1841.71  1851.67  1907.91  1935.27  1936.78
                             1942.19  1952.10  1977.86  1999.42  2008.03
                             2015.69  2017.29  2059.61  2077.07  2084.32
                             2088.68  2105.25  2107.44  2124.40  2136.58
                             2144.34  2183.66  2189.16  2199.95  2212.67
                             2232.41  2275.83  2287.86  2297.90  2314.12
                             2317.46  2361.88  2389.56  4555.26  4555.68
                             4556.94  4557.49  4560.11  4561.14  4563.01
                             4563.67  4581.12  4581.74  4582.56  4582.87
                             4585.60  4586.46

 Zero-point correction=                           0.348312 (Hartree/Particle)
 Thermal correction to Energy=                    0.367093
 Thermal correction to Enthalpy=                  0.368037
 Thermal correction to Gibbs Free Energy=         0.304911
 Sum of electronic and zero-point Energies=          -1228.011184
 Sum of electronic and thermal Energies=             -1227.992402
 Sum of electronic and thermal Enthalpies=           -1227.991458
 Sum of electronic and thermal Free Energies=        -1228.054585

                     E (Thermal)             CV                S
                      KCal/Mol        Cal/Mol-Kelvin    Cal/Mol-Kelvin
 Total                  230.355             85.739            132.862
 Electronic               0.000              0.000              0.000
 Translational            0.889              2.981             43.836
 Rotational               0.889              2.981             33.100
 Vibrational            228.577             79.778             55.926
 Vibration     1          0.596              1.974              4.530
 Vibration     2          0.597              1.974              4.470
 Vibration     3          0.605              1.946              3.378
 Vibration     4          0.609              1.933              3.109
 Vibration     5          0.617              1.906              2.713
 Vibration     6          0.633              1.855              2.240
 Vibration     7          0.638              1.839              2.129
 Vibration     8          0.664              1.758              1.711
 Vibration     9          0.669              1.745              1.659
 Vibration    10          0.680              1.710              1.531
 Vibration    11          0.703              1.642              1.328
 Vibration    12          0.706              1.635              1.309
 Vibration    13          0.710              1.624              1.281
 Vibration    14          0.710              1.623              1.279
 Vibration    15          0.710              1.622              1.276
 Vibration    16          0.710              1.622              1.276
 Vibration    17          0.763              1.478              0.976
 Vibration    18          0.783              1.427              0.892
 Vibration    19          0.788              1.414              0.873
 Vibration    20          0.789              1.411              0.868
 Vibration    21          0.813              1.350              0.781
 Vibration    22          0.815              1.346              0.775
 Vibration    23          0.835              1.297              0.714
 Vibration    24          0.841              1.283              0.697
 Vibration    25          0.847              1.270              0.681
 Vibration    26          0.869              1.220              0.625
 Vibration    27          0.893              1.166              0.569
 Vibration    28          0.899              1.154              0.557
 Vibration    29          0.901              1.150              0.554
 Vibration    30          0.901              1.149              0.553
 Vibration    31          0.926              1.096              0.504
 Vibration    32          0.940              1.067              0.479
 Vibration    33          0.945              1.058              0.471
 Vibration    34          0.965              1.018              0.439

 Optimization completed.
    -- Stationary point found.
 Normal termination of Gaussian 16 at Mon Feb 27 23:50:17 2023.
