 Gaussian 16, Revision A.03,
 Gaussian 16:  ES64L-G16RevA.03 25-Dec-2016

 ----------------------------------------------------------------------
 # opt=tight freq=(savenormalmodes,hpmodes) td=(nstates=10,root=4) b3ly
 p/6-311++g(2d,2p) geom=connectivity empiricaldispersion=gd3bj
 ----------------------------------------------------------------------

 ---------------------------------------------------------
 Ovalene excited state optimization + freq with dispersion
 ---------------------------------------------------------
 Symbolic Z-matrix:
 Charge =  0 Multiplicity = 1

 SCF Done:  E(RB3LYP) =  -1228.45992078     A.U. after   13 cycles
 Total Energy, E(TD-HF/TD-DFT) =  -1228.33165868
 SCF Done:  E(RB3LYP) =  -1228.45743019     A.U. after   11 cycles
 Total Energy, E(TD-HF/TD-DFT) =  -1228.33664103
 SCF Done:  E(RB3LYP) =  -1228.45695897     A.U. after   10 cycles
 Total Energy, E(TD-HF/TD-DFT) =  -1228.33713383
 SCF Done:  E(RB3LYP) =  -1228.45679431     A.U. after    8 cycles
 Total Energy, E(TD-HF/TD-DFT) =  -1228.33714890
 SCF Done:  E(RB3LYP) =  -1228.45680444     A.U. after    6 cycles
 Total Energy, E(TD-HF/TD-DFT) =  -1228.33714931
 SCF Done:  E(RB3LYP) =  -1228.45680705     A.U. after    5 cycles
 Total Energy, E(TD-HF/TD-DFT) =  -1228.33714939
 Optimization completed.
    -- Stationary point found.
 Normal termination of Gaussian 16 at Wed Mar  1 15:18:00 2023.

 ----------------------------------------------------------------------
 #N Geom=AllCheck Guess=TCheck SCRF=Check GenChk RB3LYP TD(FC,Read)/6-3
 11++G(2d,2p) Freq
 ----------------------------------------------------------------------

 Structure from the checkpoint file:  "ovalene-excited-4-opt-freq-disp.chk"
 ---------------------------------------------------------
 Ovalene excited state optimization + freq with dispersion
 ---------------------------------------------------------
 Charge =  0 Multiplicity = 1

                         Standard orientation:
 ---------------------------------------------------------------------
 Center     Atomic      Atomic             Coordinates (Angstroms)
 Number     Number       Type             X           Y           Z
 ---------------------------------------------------------------------
      1          6           0       -0.000000    2.472609    0.702958
      2          6           0       -0.000000    1.226488    1.420856
      3          6           0       -0.000000    0.000000    0.710363
      4          6           0        0.000000    0.000000   -0.710363
      5          6           0        0.000000    1.226488   -1.420856
      6          6           0        0.000000    2.472609   -0.702958
      7          6           0       -0.000000   -1.226488    1.420856
      8          6           0       -0.000000   -1.226488   -1.420856
      9          6           0       -0.000000   -2.472609   -0.702958
     10          6           0       -0.000000   -2.472609    0.702958
     11          6           0        0.000000   -3.710482   -1.418185
     12          6           0        0.000000   -3.670886   -2.824005
     13          6           0        0.000000   -2.476308   -3.515874
     14          6           0        0.000000   -1.224256   -2.849879
     15          6           0        0.000000   -0.000000   -3.534809
     16          6           0        0.000000    1.224256   -2.849879
     17          1           0        0.000000   -0.000000   -4.616206
     18          1           0        0.000000   -4.604665   -3.370269
     19          1           0        0.000000   -2.483891   -4.597462
     20          6           0        0.000000    1.224256    2.849879
     21          6           0       -0.000000   -0.000000    3.534809
     22          6           0       -0.000000   -1.224256    2.849879
     23          1           0       -0.000000   -0.000000    4.616206
     24          6           0       -0.000000   -2.476308    3.515874
     25          6           0       -0.000000   -3.670886    2.824005
     26          6           0       -0.000000   -3.710482    1.418185
     27          1           0       -0.000000   -2.483891    4.597462
     28          1           0       -0.000000   -4.604665    3.370269
     29          6           0        0.000000   -4.927736   -0.682143
     30          1           0        0.000000   -5.861337   -1.228281
     31          6           0       -0.000000   -4.927736    0.682143
     32          1           0       -0.000000   -5.861337    1.228281
     33          6           0        0.000000    2.476308   -3.515874
     34          6           0        0.000000    3.670886   -2.824005
     35          1           0        0.000000    4.604665   -3.370269
     36          6           0        0.000000    3.710482   -1.418185
     37          1           0        0.000000    2.483891   -4.597462
     38          6           0        0.000000    4.927736   -0.682143
     39          1           0        0.000000    5.861337   -1.228281
     40          6           0        0.000000    3.710482    1.418185
     41          6           0        0.000000    2.476308    3.515874
     42          6           0        0.000000    3.670886    2.824005
     43          1           0        0.000000    4.604665    3.370269
     44          6           0        0.000000    4.927736    0.682143
     45          1           0        0.000000    5.861337    1.228281
     46          1           0        0.000000    2.483891    4.597462
 ---------------------------------------------------------------------

 SCF Done:  E(RB3LYP) =  -1228.45680705     A.U. after    1 cycles

 Excitation energies and oscillator strengths:

 Excited State   1:      Singlet-B1U    2.5043 eV  495.09 nm  f=0.1823  <S**2>=0.000
     102 ->105        -0.13188
     103 ->104         0.69085

 Excited State   2:      Singlet-B2U    2.7947 eV  443.64 nm  f=0.0001  <S**2>=0.000
     102 ->104         0.50171
     103 ->105         0.49555

 Excited State   3:      Singlet-B3G    3.1484 eV  393.80 nm  f=0.0000  <S**2>=0.000
     101 ->104         0.28314
     103 ->106         0.64276

 Excited State   4:      Singlet-B3G    3.2561 eV  380.78 nm  f=0.0000  <S**2>=0.000
     101 ->104         0.64140
     103 ->106        -0.28102
 This state for optimization and/or second-order correction.
 Total Energy, E(TD-HF/TD-DFT) =  -1228.33714935
 Copying the excited state density for this state as the 1-particle RhoCI density.

 Excited State   5:      Singlet-AG     3.5265 eV  351.58 nm  f=0.0000  <S**2>=0.000
     100 ->104        -0.18405
     103 ->107         0.67271

 Excited State   6:      Singlet-B2U    3.6330 eV  341.28 nm  f=1.0199  <S**2>=0.000
     100 ->106         0.11628
     101 ->107        -0.13071
     102 ->104        -0.47779
     103 ->105         0.48433

 Excited State   7:      Singlet-AG     3.8165 eV  324.86 nm  f=0.0000  <S**2>=0.000
     100 ->104         0.62818
     102 ->106         0.25178
     103 ->107         0.14933

 Excited State   8:      Singlet-B1U    3.8889 eV  318.81 nm  f=0.0000  <S**2>=0.000
      97 ->104         0.12026
     103 ->108         0.68484

 Excited State   9:      Singlet-AG     3.9211 eV  316.20 nm  f=0.0000  <S**2>=0.000
      99 ->104         0.20923
     100 ->104         0.16324
     101 ->105         0.47239
     102 ->106        -0.42107
     103 ->110         0.11556

 Excited State  10:      Singlet-B1U    3.9829 eV  311.29 nm  f=0.1834  <S**2>=0.000
     101 ->106         0.19988
     102 ->105         0.65543

 The electronic state is 1-AG.
 Alpha  occ. eigenvalues --  -10.19316 -10.19305 -10.19291 -10.19288 -10.19258
 Alpha  occ. eigenvalues --  -10.19220 -10.19218 -10.19215 -10.19173 -10.19173
 Alpha  occ. eigenvalues --  -10.19160 -10.19159 -10.19157 -10.19157 -10.19072
 Alpha  occ. eigenvalues --  -10.19072 -10.19071 -10.19071 -10.18303 -10.18302
 Alpha  occ. eigenvalues --  -10.18263 -10.18262 -10.18262 -10.18262 -10.18211
 Alpha  occ. eigenvalues --  -10.18211 -10.18194 -10.18194 -10.18193 -10.18193
 Alpha  occ. eigenvalues --  -10.18141 -10.18141  -0.91913  -0.89533  -0.88405
 Alpha  occ. eigenvalues --   -0.86078  -0.85524  -0.83036  -0.81804  -0.81268
 Alpha  occ. eigenvalues --   -0.79509  -0.77174  -0.76385  -0.76188  -0.74703
 Alpha  occ. eigenvalues --   -0.72926  -0.72579  -0.70572  -0.65671  -0.65075
 Alpha  occ. eigenvalues --   -0.64757  -0.64379  -0.63978  -0.62652  -0.58931
 Alpha  occ. eigenvalues --   -0.58119  -0.57585  -0.55682  -0.54462  -0.54336
 Alpha  occ. eigenvalues --   -0.54024  -0.50970  -0.49904  -0.49025  -0.48933
 Alpha  occ. eigenvalues --   -0.48797  -0.47774  -0.46502  -0.45197  -0.44280
 Alpha  occ. eigenvalues --   -0.44057  -0.43913  -0.43732  -0.43250  -0.42626
 Alpha  occ. eigenvalues --   -0.42520  -0.41832  -0.41271  -0.40678  -0.40041
 Alpha  occ. eigenvalues --   -0.40035  -0.39935  -0.39113  -0.37519  -0.37421
 Alpha  occ. eigenvalues --   -0.37267  -0.36631  -0.36477  -0.35453  -0.35065
 Alpha  occ. eigenvalues --   -0.34079  -0.32280  -0.32215  -0.32077  -0.31812
 Alpha  occ. eigenvalues --   -0.30030  -0.27136  -0.26893  -0.26726  -0.24994
 Alpha  occ. eigenvalues --   -0.23215  -0.21926  -0.18929
 Alpha virt. eigenvalues --   -0.09066  -0.05985  -0.04938  -0.03696  -0.02276
 Alpha virt. eigenvalues --   -0.01872  -0.01016  -0.00852  -0.00430  -0.00305
 Alpha virt. eigenvalues --    0.00600   0.00640   0.01889   0.01994   0.02000

 Mulliken charges:
               1
     1  C   -0.143442
     2  C   -0.133958
     3  C   -0.092885
     4  C   -0.092885
     5  C   -0.133958
     6  C   -0.143442
     7  C   -0.133958
     8  C   -0.133958
     9  C   -0.143442
    10  C   -0.143442
    11  C    0.349362
    12  C   -0.174282
    13  C   -0.283881
    14  C    0.387425
    15  C   -0.150436
    16  C    0.387425
    17  H    0.041596
    18  H    0.098188
    19  H    0.106342
    20  C    0.387425
    21  C   -0.150436
    22  C    0.387425
    23  H    0.041596
    24  C   -0.283881
    25  C   -0.174282
    26  C    0.349362
    27  H    0.106342
    28  H    0.098188
    29  C   -0.198641
    30  H    0.093750
    31  C   -0.198641
    32  H    0.093750
    33  C   -0.283881
    34  C   -0.174282
    35  H    0.098188
    36  C    0.349362
    37  H    0.106342
    38  C   -0.198641
    39  H    0.093750
    40  C    0.349362
    41  C   -0.283881
    42  C   -0.174282
    43  H    0.098188
    44  C   -0.198641
    45  H    0.093750
    46  H    0.106342
 Sum of Mulliken charges =  -0.00000

 Dipole moment (field-independent basis, Debye):
    X=              0.0000    Y=              0.0000    Z=              0.0000  Tot=              0.0000
 Quadrupole moment (field-independent basis, Debye-Ang):
   XX=           -191.0801   YY=           -157.0766   ZZ=           -158.6935
   XY=              0.0000   XZ=             -0.0000   YZ=             -0.0000

  Exact polarizability: 159.575   0.000 726.537  -0.000  -0.000 584.123
 Approx polarizability: 289.522   0.0001261.679  -0.000   0.0001149.662

                      1                      2                      3
                     ?A                     ?A                     ?A
 Frequencies --     57.3667                57.9318               102.0446
 Red. masses --      5.4695                 5.6708                 5.1712
 Frc consts  --      0.0106                 0.0112                 0.0317
 IR Inten    --      0.0550                 0.4677                 3.9530

                      4                      5                      6
                     ?A                     B2G                    ?B
 Frequencies --    118.1068               145.7279               191.2270
 Red. masses --      4.6385                 5.2653                 5.2768
 Frc consts  --      0.0381                 0.0659                 0.1137
 IR Inten    --      0.0000                 0.0000                 0.0000

                      7                      8                      9
                     ?B                     ?B                     ?B
 Frequencies --    200.2477               244.5962               255.0566
 Red. masses --      4.3858                 4.7913                 4.6681
 Frc consts  --      0.1036                 0.1689                 0.1789
 IR Inten    --      0.0033                 0.0000                 0.0000

                     10                     11                     12
                     B1U                    B3G                    B3G
 Frequencies --    276.8149               294.8600               317.8718
 Red. masses --      5.9083                 8.6320                 5.5905
 Frc consts  --      0.2667                 0.4422                 0.3328
 IR Inten    --      6.0716                 0.0000                 7.7376

                     13                     14                     15
                     AG                     B3G                    B3G
 Frequencies --    323.9625               324.7177               329.6892
 Red. masses --      8.6671                 4.5443                 4.4316
 Frc consts  --      0.5359                 0.2823                 0.2838
 IR Inten    --      0.0000                 0.0005                 0.0004

                     16                     17                     18
                     B3G                    B2U                    B3G
 Frequencies --    331.8221               400.7375               402.8415
 Red. masses --      5.3151                 6.3186                 3.7657
 Frc consts  --      0.3448                 0.5979                 0.3601
 IR Inten    --      0.0000                18.5645                 0.2008

                     19                     20                     21
                     B2U                    AG                     AG
 Frequencies --    427.2542               433.0856               467.0685
 Red. masses --      7.3905                 6.4888                 5.5499
 Frc consts  --      0.7949                 0.7171                 0.7133
 IR Inten    --      2.7973                 0.0000                 0.0000

                     22                     23                     24
                     B3G                    AU                     B2G
 Frequencies --    476.6130               478.4650               482.0560
 Red. masses --      5.0574                 3.6543                 3.3633
 Frc consts  --      0.6769                 0.4929                 0.4605
 IR Inten    --      0.0000                 0.0000                 0.0000

                     25                     26                     27
                     B1U                    B3G                    B3U
 Frequencies --    486.9744               498.3181               523.9866
 Red. masses --      6.3003                 4.2710                 3.5689
 Frc consts  --      0.8803                 0.6249                 0.5773
 IR Inten    --      5.3868                 0.0000                 9.0707

                     28                     29                     30
                     B2U                    B3G                    ?B
 Frequencies --    545.0035               547.6312               557.2189
 Red. masses --      5.3907                 5.3064                 4.5340
 Frc consts  --      0.9434                 0.9376                 0.8294
 IR Inten    --      0.0005                 0.0000                 0.0001

                     31                     32                     33
                     ?B                     AU                     B1U
 Frequencies --    570.0686               578.5279               581.2190
 Red. masses --      3.6754                 4.4963                 4.9804
 Frc consts  --      0.7037                 0.8867                 0.9913
 IR Inten    --      0.0000                 0.0000                 0.9160

                     34                     35                     36
                     AG                     B2G                    ?B
 Frequencies --    602.2670               604.4515               619.6418
 Red. masses --      7.0971                 4.8445                 3.6001
 Frc consts  --      1.5167                 1.0429                 0.8144
 IR Inten    --      0.0000                 0.0000                36.3043

                     37                     38                     39
                     B3G                    ?B                     B1U
 Frequencies --    649.3655               663.6681               669.0729
 Red. masses --      8.4499                 3.8331                 7.0032
 Frc consts  --      2.0993                 0.9947                 1.8471
 IR Inten    --      0.0000                 0.0003                 0.3078

                     40                     41                     42
                     B2U                    B2G                    B1U
 Frequencies --    670.0384               714.4353               715.7794
 Red. masses --      8.0946                 4.2448                 7.5283
 Frc consts  --      2.1411                 1.2765                 2.2725
 IR Inten    --      5.0575                 0.0000                 1.4446

                     43                     44                     45
                     B3G                    B1G                    B3U
 Frequencies --    719.5456               739.6965               761.1337
 Red. masses --      5.0878                 2.8650                 1.2939
 Frc consts  --      1.5520                 0.9236                 0.4416
 IR Inten    --      0.0000                 0.0000                 1.0877

                     46                     47                     48
                     B2G                    AG                     ?C
 Frequencies --    769.7477               775.1490               779.1640
 Red. masses --      1.6955                 6.1414                 2.3443
 Frc consts  --      0.5919                 2.1741                 0.8385
 IR Inten    --      0.0000                 0.0000                 0.6076

                     49                     50                     51
                     ?B                     ?B                     ?C
 Frequencies --    789.0331               789.8627               794.0781
 Red. masses --      6.3896                 7.5170                 1.6913
 Frc consts  --      2.3438                 2.7631                 0.6283
 IR Inten    --     10.9212                 0.4029                 0.0000

                     52                     53                     54
                     ?C                     AU                     B3U
 Frequencies --    798.1030               805.7997               822.7518
 Red. masses --      3.0035                 7.1935                 1.8952
 Frc consts  --      1.1272                 2.7520                 0.7559
 IR Inten    --      0.0000                 0.0000                14.3763

                     55                     56                     57
                     AU                     B1G                    B2G
 Frequencies --    830.8183               851.1649               858.9726
 Red. masses --      1.6179                 1.5854                 1.7031
 Frc consts  --      0.6580                 0.6767                 0.7404
 IR Inten    --      0.0001                 0.0001                 0.0002

                     58                     59                     60
                     B3G                    B3U                    B3G
 Frequencies --    867.6284               868.5642               902.1021
 Red. masses --      6.1465                 1.7386                 5.8809
 Frc consts  --      2.7261                 0.7728                 2.8197
 IR Inten    --      0.0000               169.3550                 0.0000

                     61                     62                     63
                     AG                     B1U                    AU
 Frequencies --    911.5139               934.0715               949.9585
 Red. masses --      7.3599                 5.7407                 1.3643
 Frc consts  --      3.6029                 2.9511                 0.7254
 IR Inten    --      0.0000                 2.5277                 0.0000

                     64                     65                     66
                     B2G                    B1G                    B3U
 Frequencies --    952.2102               957.0516               958.2163
 Red. masses --      1.3748                 1.4109                 1.4247
 Frc consts  --      0.7345                 0.7614                 0.7707
 IR Inten    --      0.0000                 0.0000                 0.3766

                     67                     68                     69
                     ?D                     ?D                     B2U
 Frequencies --    975.6701               975.7144               991.4212
 Red. masses --      1.3660                 1.3679                 4.5421
 Frc consts  --      0.7661                 0.7672                 2.6304
 IR Inten    --      0.0000                 0.0000                19.1974

                     70                     71                     72
                     AG                     B1U                    B2U
 Frequencies --   1076.4797              1081.7995              1085.8192
 Red. masses --      4.5969                 4.2357                 2.6513
 Frc consts  --      3.1385                 2.9206                 1.8417
 IR Inten    --      0.0000                 1.0305                35.5478

                     73                     74                     75
                     B3G                    B3G                    AG
 Frequencies --   1132.6558              1150.5772              1171.0304
 Red. masses --      2.2600                 1.7894                 1.3912
 Frc consts  --      1.7083                 1.3957                 1.1240
 IR Inten    --      0.0000                 0.0000                 0.0000

                     76                     77                     78
                     B2U                    B1U                    AG
 Frequencies --   1171.1595              1172.3067              1181.8042
 Red. masses --      1.2657                 1.3679                 1.3770
 Frc consts  --      1.0229                 1.1076                 1.1331
 IR Inten    --      0.7106                22.4674                 0.0000

                     79                     80                     81
                     B2U                    B3G                    B2U
 Frequencies --   1201.5578              1213.4256              1233.7186
 Red. masses --      1.5979                 1.9815                 1.9795
 Frc consts  --      1.3592                 1.7190                 1.7752
 IR Inten    --      2.2795                 0.0000                49.8712

                     82                     83                     84
                     B3G                    B1U                    B2U
 Frequencies --   1234.4302              1244.9790              1253.9444
 Red. masses --      2.0108                 2.2800                 2.4595
 Frc consts  --      1.8053                 2.0821                 2.2785
 IR Inten    --      0.0000                28.1463                 0.1696

                     85                     86                     87
                     AG                     AG                     B1U
 Frequencies --   1263.4126              1273.6557              1293.7702
 Red. masses --      2.6143                 3.6478                 2.4898
 Frc consts  --      2.4586                 3.4865                 2.4554
 IR Inten    --      0.0000                 0.0000                36.8486

                     88                     89                     90
                     ?E                     ?E                     B3G
 Frequencies --   1314.5392              1318.3419              1348.7322
 Red. masses --      2.9325                 4.1934                 6.9689
 Frc consts  --      2.9856                 4.2941                 7.4690
 IR Inten    --      0.0000                15.1920                 0.0000

                     91                     92                     93
                     AG                     B2U                    AG
 Frequencies --   1348.9856              1372.2591              1385.6939
 Red. masses --      3.6862                 6.3173                 6.7676
 Frc consts  --      3.9523                 7.0089                 7.6563
 IR Inten    --      0.0000               683.2243                 0.0000

                     94                     95                     96
                     B2U                    B2U                    B1U
 Frequencies --   1392.3014              1405.5743              1412.1249
 Red. masses --      3.4726                 5.8367                 6.7358
 Frc consts  --      3.9662                 6.7940                 7.9138
 IR Inten    --      1.6308                58.4953                68.2264

                     97                     98                     99
                     B1U                    AG                     AG
 Frequencies --   1413.0580              1416.0311              1425.5671
 Red. masses --      5.4816                 7.2556                10.2278
 Frc consts  --      6.4487                 8.5718                12.2464
 IR Inten    --      6.1968                 0.0000                 0.0001

                    100                    101                    102
                     B3G                    B2U                    B3G
 Frequencies --   1426.6242              1434.0494              1440.4053
 Red. masses --      3.9105                 7.5455                 3.5290
 Frc consts  --      4.6892                 9.1425                 4.3139
 IR Inten    --      0.0000                59.7174                 0.0000

                    103                    104                    105
                     B3G                    B1U                    B2U
 Frequencies --   1453.3987              1469.9148              1481.4109
 Red. masses --      1.9219                 2.1400                 2.4076
 Frc consts  --      2.3920                 2.7242                 3.1130
 IR Inten    --      0.0000                 0.5860                40.3367

                    106                    107                    108
                     B3G                    ?F                     B2U
 Frequencies --   1505.2078              1514.0051              1515.8949
 Red. masses --      3.6558                 6.8897                 5.4547
 Frc consts  --      4.8800                 9.3048                 7.3851
 IR Inten    --      0.0000                 0.0001               143.8459

                    109                    110                    111
                     B3G                    ?F                     ?F
 Frequencies --   1517.0509              1528.9906              1532.5453
 Red. masses --      5.0323                 9.6593                 3.2388
 Frc consts  --      6.8236                13.3047                 4.4819
 IR Inten    --      0.0000                 8.0510                 0.0000

                    112                    113                    114
                     B1U                    B2U                    B1U
 Frequencies --   1558.7773              1582.8502              1595.9708
 Red. masses --      3.9339                 4.4652                 5.6586
 Frc consts  --      5.6317                 6.5912                 8.4920
 IR Inten    --      0.5330                60.5697                 5.7983

                    115                    116                    117
                     B3G                    AG                     B2U
 Frequencies --   1601.8159              1628.7570              1632.5104
 Red. masses --      4.9822                 6.3897                 6.3065
 Frc consts  --      7.5318                 9.9871                 9.9026
 IR Inten    --      0.0000                 0.0000                36.3131

                    118                    119                    120
                     AG                     B1U                    B3G
 Frequencies --   1651.2190              3166.4163              3166.4962
 Red. masses --      7.1530                 1.0864                 1.0863
 Frc consts  --     11.4907                 6.4179                 6.4174
 IR Inten    --      0.0000                 0.7818                 0.0000

                    121                    122                    123
                     AG                     B2U                    B1U
 Frequencies --   3167.2510              3167.6043              3169.0355
 Red. masses --      1.0866                 1.0865                 1.0866
 Frc consts  --      6.4224                 6.4233                 6.4293
 IR Inten    --      0.0000                18.7068                 2.7496

                    124                    125                    126
                     B3G                    B1U                    AG
 Frequencies --   3169.1242              3175.5361              3176.1492
 Red. masses --      1.0864                 1.0895                 1.0895
 Frc consts  --      6.4287                 6.4729                 6.4754
 IR Inten    --      0.0000                 5.9156                 0.0000

                    127                    128                    129
                     B2U                    B3G                    AG
 Frequencies --   3183.5483              3184.2303              3184.2585
 Red. masses --      1.0942                 1.0934                 1.0947
 Frc consts  --      6.5339                 6.5317                 6.5396
 IR Inten    --      0.0000                 0.0000                 0.0000

                    130                    131                    132
                     B1U                    B2U                    AG
 Frequencies --   3184.9072              3186.4342              3186.8911
 Red. masses --      1.0933                 1.0944                 1.0941
 Frc consts  --      6.5338                 6.5468                 6.5473
 IR Inten    --     95.0849                98.2434                 0.0000

 - Thermochemistry -
 -------------------
 Temperature   298.150 Kelvin.  Pressure   1.00000 Atm.
 Atom     1 has atomic number  6 and mass  12.00000

 Molecular mass:   398.10955 amu.
 Principal axes and moments of inertia in atomic units:
                           1         2         3
     Eigenvalues --  7490.35077********************
           X            0.00000   0.00000   1.00000
           Y            1.00000   0.00000  -0.00000
           Z            0.00000   1.00000   0.00000
 This molecule is an asymmetric top.
 Rotational symmetry number  4.
 Warning -- assumption of classical behavior for rotation
           may cause significant error
 Rotational temperatures (Kelvin)      0.01156     0.00702     0.00437
 Rotational constants (GHZ):           0.24094     0.14632     0.09103
 Zero-point vibrational energy     912726.7 (Joules/Mol)
                                  218.14692 (Kcal/Mol)
 Warning -- explicit consideration of  36 degrees of freedom as
           vibrations may cause significant error
 Vibrational temperatures:     82.54    83.35   146.82   169.93   209.67
          (Kelvin)            275.13   288.11   351.92   366.97   398.27
                              424.24   457.35   466.11   467.20   474.35
                              477.42   576.57   579.60   614.72   623.11
                              672.01   685.74   688.40   693.57   700.65
                              716.97   753.90   784.14   787.92   801.71
                              820.20   832.37   836.24   866.53   869.67
                              891.53   934.29   954.87   962.65   964.04
                             1027.91  1029.85  1035.27  1064.26  1095.10
                             1107.50  1115.27  1121.04  1135.24  1136.44
                             1142.50  1148.29  1159.37  1183.76  1195.36
                             1224.64  1235.87  1248.32  1249.67  1297.92
                             1311.47  1343.92  1366.78  1370.02  1376.98
                             1378.66  1403.77  1403.84  1426.43  1548.81
                             1556.47  1562.25  1629.64  1655.42  1684.85
                             1685.04  1686.69  1700.35  1728.77  1745.85
                             1775.05  1776.07  1791.25  1804.15  1817.77
                             1832.51  1861.45  1891.33  1896.80  1940.52
                             1940.89  1974.37  1993.70  2003.21  2022.31
                             2031.73  2033.08  2037.35  2051.07  2052.59
                             2063.28  2072.42  2091.12  2114.88  2131.42
                             2165.66  2178.32  2181.03  2182.70  2199.88
                             2204.99  2242.73  2277.37  2296.25  2304.66
                             2343.42  2348.82  2375.74  4555.77  4555.88
                             4556.97  4557.48  4559.54  4559.66  4568.89
                             4569.77  4580.42  4581.40  4581.44  4582.37
                             4584.57  4585.23

 Zero-point correction=                           0.347639 (Hartree/Particle)
 Thermal correction to Energy=                    0.366515
 Thermal correction to Enthalpy=                  0.367459
 Thermal correction to Gibbs Free Energy=         0.304114
 Sum of electronic and zero-point Energies=          -1227.989510
 Sum of electronic and thermal Energies=             -1227.970635
 Sum of electronic and thermal Enthalpies=           -1227.969691
 Sum of electronic and thermal Free Energies=        -1228.033036

                     E (Thermal)             CV                S
                      KCal/Mol        Cal/Mol-Kelvin    Cal/Mol-Kelvin
 Total                  229.991             86.014            133.321
 Electronic               0.000              0.000              0.000
 Translational            0.889              2.981             43.836
 Rotational               0.889              2.981             33.104
 Vibrational            228.214             80.052             56.381
 Vibration     1          0.596              1.975              4.546
 Vibration     2          0.596              1.974              4.526
 Vibration     3          0.604              1.948              3.415
 Vibration     4          0.608              1.934              3.131
 Vibration     5          0.617              1.907              2.727
 Vibration     6          0.634              1.852              2.216
 Vibration     7          0.638              1.840              2.131
 Vibration     8          0.660              1.772              1.769
 Vibration     9          0.665              1.754              1.695
 Vibration    10          0.678              1.716              1.553
 Vibration    11          0.689              1.683              1.446
 Vibration    12          0.704              1.639              1.321
 Vibration    13          0.709              1.628              1.290
 Vibration    14          0.709              1.626              1.286
 Vibration    15          0.712              1.616              1.262
 Vibration    16          0.714              1.612              1.251
 Vibration    17          0.767              1.469              0.960
 Vibration    18          0.768              1.464              0.952
 Vibration    19          0.789              1.411              0.868
 Vibration    20          0.794              1.398              0.849
 Vibration    21          0.824              1.323              0.746
 Vibration    22          0.833              1.302              0.719
 Vibration    23          0.835              1.298              0.714
 Vibration    24          0.838              1.290              0.705
 Vibration    25          0.843              1.279              0.692
 Vibration    26          0.854              1.254              0.662
 Vibration    27          0.879              1.197              0.601
 Vibration    28          0.900              1.151              0.555
 Vibration    29          0.903              1.145              0.549
 Vibration    30          0.913              1.124              0.529
 Vibration    31          0.926              1.096              0.504
 Vibration    32          0.935              1.078              0.488
 Vibration    33          0.938              1.072              0.483
 Vibration    34          0.961              1.027              0.446
 Vibration    35          0.963              1.022              0.442
 Vibration    36          0.980              0.990              0.417

 Optimization completed.
    -- Stationary point found.
 Normal termination of Gaussian 16 at Wed Mar  1 22:09:45 2023.
