 Gaussian 16, Revision A.03,
 Gaussian 16:  ES64L-G16RevA.03 25-Dec-2016

 ----------------------------------------------------------------------
 # opt=tight freq=(savenormalmodes,hpmodes) td=(nstates=10,root=3) b3ly
 p/6-311++g(2d,2p) geom=connectivity empiricaldispersion=gd3bj
 ----------------------------------------------------------------------

 ---------------------------------------------------------
 Ovalene excited state optimization + freq with dispersion
 ---------------------------------------------------------
 Symbolic Z-matrix:
 Charge =  0 Multiplicity = 1

 SCF Done:  E(RB3LYP) =  -1228.45992078     A.U. after   13 cycles
 Total Energy, E(TD-HF/TD-DFT) =  -1228.33705707
 SCF Done:  E(RB3LYP) =  -1228.45862135     A.U. after   11 cycles
 Total Energy, E(TD-HF/TD-DFT) =  -1228.34167453
 SCF Done:  E(RB3LYP) =  -1228.45719446     A.U. after   10 cycles
 Total Energy, E(TD-HF/TD-DFT) =  -1228.34226334
 SCF Done:  E(RB3LYP) =  -1228.45709522     A.U. after    8 cycles
 Total Energy, E(TD-HF/TD-DFT) =  -1228.34227085
 SCF Done:  E(RB3LYP) =  -1228.45710055     A.U. after    6 cycles
 Total Energy, E(TD-HF/TD-DFT) =  -1228.34227113
 SCF Done:  E(RB3LYP) =  -1228.45710225     A.U. after    5 cycles
 Total Energy, E(TD-HF/TD-DFT) =  -1228.34227112
 SCF Done:  E(RB3LYP) =  -1228.45710069     A.U. after    4 cycles
 Total Energy, E(TD-HF/TD-DFT) =  -1228.34227111
 SCF Done:  E(RB3LYP) =  -1228.45710154     A.U. after    4 cycles
 Total Energy, E(TD-HF/TD-DFT) =  -1228.34227119
 Optimization completed.
    -- Stationary point found.
 Normal termination of Gaussian 16 at Tue Feb 28 17:35:59 2023.

 ----------------------------------------------------------------------
 #N Geom=AllCheck Guess=TCheck SCRF=Check GenChk RB3LYP TD(FC,Read)/6-3
 11++G(2d,2p) Freq
 ----------------------------------------------------------------------

 Structure from the checkpoint file:  "ovalene-excited-3-opt-freq-disp.chk"
 ---------------------------------------------------------
 Ovalene excited state optimization + freq with dispersion
 ---------------------------------------------------------
 Charge =  0 Multiplicity = 1

                         Standard orientation:
 ---------------------------------------------------------------------
 Center     Atomic      Atomic             Coordinates (Angstroms)
 Number     Number       Type             X           Y           Z
 ---------------------------------------------------------------------
      1          6           0       -0.000000    2.471169    0.700134
      2          6           0       -0.000000    1.229302    1.414589
      3          6           0       -0.000000    0.000000    0.711527
      4          6           0        0.000000    0.000000   -0.711527
      5          6           0        0.000000    1.229302   -1.414589
      6          6           0        0.000000    2.471169   -0.700134
      7          6           0       -0.000000   -1.229302    1.414589
      8          6           0       -0.000000   -1.229302   -1.414589
      9          6           0       -0.000000   -2.471169   -0.700134
     10          6           0       -0.000000   -2.471169    0.700134
     11          6           0        0.000000   -3.696798   -1.425778
     12          6           0        0.000000   -3.666908   -2.836643
     13          6           0        0.000000   -2.469652   -3.529907
     14          6           0        0.000000   -1.230338   -2.840039
     15          6           0        0.000000    0.000000   -3.518768
     16          6           0        0.000000    1.230338   -2.840039
     17          1           0        0.000000    0.000000   -4.601508
     18          1           0        0.000000   -4.603834   -3.376798
     19          1           0        0.000000   -2.466505   -4.611032
     20          6           0        0.000000    1.230338    2.840039
     21          6           0       -0.000000   -0.000000    3.518768
     22          6           0       -0.000000   -1.230338    2.840039
     23          1           0       -0.000000   -0.000000    4.601508
     24          6           0       -0.000000   -2.469652    3.529907
     25          6           0       -0.000000   -3.666908    2.836643
     26          6           0       -0.000000   -3.696798    1.425778
     27          1           0       -0.000000   -2.466505    4.611032
     28          1           0       -0.000000   -4.603834    3.376798
     29          6           0        0.000000   -4.912884   -0.683334
     30          1           0        0.000000   -5.849509   -1.224804
     31          6           0       -0.000000   -4.912884    0.683334
     32          1           0       -0.000000   -5.849509    1.224804
     33          6           0        0.000000    2.469652   -3.529907
     34          6           0        0.000000    3.666908   -2.836643
     35          1           0        0.000000    4.603834   -3.376798
     36          6           0        0.000000    3.696798   -1.425778
     37          1           0        0.000000    2.466505   -4.611032
     38          6           0        0.000000    4.912884   -0.683334
     39          1           0        0.000000    5.849509   -1.224804
     40          6           0        0.000000    3.696798    1.425778
     41          6           0        0.000000    2.469652    3.529907
     42          6           0        0.000000    3.666908    2.836643
     43          1           0        0.000000    4.603834    3.376798
     44          6           0        0.000000    4.912884    0.683334
     45          1           0        0.000000    5.849509    1.224804
     46          1           0        0.000000    2.466505    4.611032
 ---------------------------------------------------------------------

 SCF Done:  E(RB3LYP) =  -1228.45710154     A.U. after    1 cycles

 Excitation energies and oscillator strengths:

 Excited State   1:      Singlet-B1U    2.5078 eV  494.39 nm  f=0.1813  <S**2>=0.000
     102 ->105        -0.13112
     103 ->104         0.69094

 Excited State   2:      Singlet-B2U    2.7986 eV  443.02 nm  f=0.0001  <S**2>=0.000
     102 ->104         0.50057
     103 ->105         0.49668

 Excited State   3:      Singlet-B3G    3.1247 eV  396.79 nm  f=0.0000  <S**2>=0.000
     101 ->104         0.15739
     103 ->106         0.68450
 This state for optimization and/or second-order correction.
 Total Energy, E(TD-HF/TD-DFT) =  -1228.34227107
 Copying the excited state density for this state as the 1-particle RhoCI density.

 Excited State   4:      Singlet-B3G    3.3059 eV  375.04 nm  f=0.0000  <S**2>=0.000
     101 ->104         0.68258
     103 ->106        -0.15518

 Excited State   5:      Singlet-AG     3.5083 eV  353.40 nm  f=0.0000  <S**2>=0.000
     100 ->104        -0.16360
     103 ->107         0.67759

 Excited State   6:      Singlet-B2U    3.6341 eV  341.17 nm  f=1.0164  <S**2>=0.000
     100 ->106         0.11741
     101 ->107        -0.12551
     102 ->104        -0.47932
     103 ->105         0.48345

 Excited State   7:      Singlet-AG     3.8279 eV  323.90 nm  f=0.0000  <S**2>=0.000
     100 ->104         0.60499
     102 ->106         0.30903
     103 ->107         0.11562

 Excited State   8:      Singlet-B1U    3.8712 eV  320.28 nm  f=0.0001  <S**2>=0.000
      97 ->104         0.11066
     103 ->108         0.69021

 Excited State   9:      Singlet-AG     3.9340 eV  315.16 nm  f=0.0000  <S**2>=0.000
      99 ->104         0.21202
     100 ->104         0.24662
     101 ->105         0.42111
     102 ->106        -0.42951
     103 ->107         0.11091
     103 ->110         0.10992

 Excited State  10:      Singlet-B1U    3.9844 eV  311.18 nm  f=0.1853  <S**2>=0.000
     101 ->106         0.20136
     102 ->105         0.65921

 The electronic state is 1-AG.
 Alpha  occ. eigenvalues --  -10.19239 -10.19213 -10.19185 -10.19181 -10.19163
 Alpha  occ. eigenvalues --  -10.19145 -10.19107 -10.19106 -10.19101 -10.19100
 Alpha  occ. eigenvalues --  -10.19091 -10.19091 -10.19091 -10.19091 -10.19059
 Alpha  occ. eigenvalues --  -10.19059 -10.19017 -10.19016 -10.18362 -10.18361
 Alpha  occ. eigenvalues --  -10.18361 -10.18360 -10.18297 -10.18296 -10.18296
 Alpha  occ. eigenvalues --  -10.18296 -10.18223 -10.18223 -10.18183 -10.18183
 Alpha  occ. eigenvalues --  -10.18114 -10.18114  -0.92017  -0.89635  -0.88428
 Alpha  occ. eigenvalues --   -0.86038  -0.85551  -0.83035  -0.81761  -0.81179
 Alpha  occ. eigenvalues --   -0.79616  -0.77048  -0.76313  -0.76238  -0.74724
 Alpha  occ. eigenvalues --   -0.73114  -0.72461  -0.70442  -0.65560  -0.65152
 Alpha  occ. eigenvalues --   -0.64854  -0.64390  -0.63885  -0.62724  -0.58756
 Alpha  occ. eigenvalues --   -0.58246  -0.57622  -0.55701  -0.54459  -0.54346
 Alpha  occ. eigenvalues --   -0.54017  -0.50933  -0.49909  -0.49044  -0.48869
 Alpha  occ. eigenvalues --   -0.48762  -0.47787  -0.46465  -0.45101  -0.44310
 Alpha  occ. eigenvalues --   -0.44134  -0.43852  -0.43809  -0.43335  -0.42727
 Alpha  occ. eigenvalues --   -0.42555  -0.41836  -0.41340  -0.40669  -0.40045
 Alpha  occ. eigenvalues --   -0.39859  -0.39843  -0.39003  -0.37663  -0.37597
 Alpha  occ. eigenvalues --   -0.37204  -0.36639  -0.36359  -0.35336  -0.35222
 Alpha  occ. eigenvalues --   -0.34051  -0.32313  -0.32227  -0.32028  -0.31730
 Alpha  occ. eigenvalues --   -0.30099  -0.27164  -0.26850  -0.26649  -0.24973
 Alpha  occ. eigenvalues --   -0.23340  -0.21865  -0.18868
 Alpha virt. eigenvalues --   -0.08983  -0.05918  -0.04993  -0.03724  -0.02283
 Alpha virt. eigenvalues --   -0.01867  -0.00962  -0.00848  -0.00417  -0.00311
 Alpha virt. eigenvalues --    0.00607   0.00640   0.01895   0.01943   0.01992

 Mulliken charges:
               1
     1  C   -0.135339
     2  C   -0.132314
     3  C   -0.100527
     4  C   -0.100527
     5  C   -0.132314
     6  C   -0.135339
     7  C   -0.132314
     8  C   -0.132314
     9  C   -0.135339
    10  C   -0.135339
    11  C    0.342388
    12  C   -0.185726
    13  C   -0.288819
    14  C    0.391622
    15  C   -0.135331
    16  C    0.391622
    17  H    0.035771
    18  H    0.099291
    19  H    0.108419
    20  C    0.391622
    21  C   -0.135331
    22  C    0.391622
    23  H    0.035771
    24  C   -0.288819
    25  C   -0.185726
    26  C    0.342388
    27  H    0.108419
    28  H    0.099291
    29  C   -0.192796
    30  H    0.093316
    31  C   -0.192796
    32  H    0.093316
    33  C   -0.288819
    34  C   -0.185726
    35  H    0.099291
    36  C    0.342388
    37  H    0.108419
    38  C   -0.192796
    39  H    0.093316
    40  C    0.342388
    41  C   -0.288819
    42  C   -0.185726
    43  H    0.099291
    44  C   -0.192796
    45  H    0.093316
    46  H    0.108419
 Sum of Mulliken charges =  -0.00000

 Dipole moment (field-independent basis, Debye):
    X=              0.0000    Y=             -0.0000    Z=             -0.0000  Tot=              0.0000
 Quadrupole moment (field-independent basis, Debye-Ang):
   XX=           -191.0721   YY=           -157.5456   ZZ=           -158.2342
   XY=              0.0000   XZ=             -0.0000   YZ=             -0.0000

  Exact polarizability: 161.447   0.000 582.525  -0.000   0.000 631.376
 Approx polarizability: 289.571   0.0001255.508  -0.000   0.0001145.945

                      1                      2                      3
                     ?A                     ?A                     ?A
 Frequencies --     58.6340                63.1469                95.7021
 Red. masses --      5.6874                 5.5918                 5.1108
 Frc consts  --      0.0115                 0.0131                 0.0276
 IR Inten    --      1.2204                 0.0002                 4.7867

                      4                      5                      6
                     B1G                    ?A                     B1G
 Frequencies --    122.4675               155.8624               174.2814
 Red. masses --      4.9654                 5.1117                 5.4877
 Frc consts  --      0.0439                 0.0732                 0.0982
 IR Inten    --      0.0000                 0.0000                 0.0000

                      7                      8                      9
                     B3U                    ?B                     ?B
 Frequencies --    215.9528               253.3874               254.4220
 Red. masses --      4.3193                 4.8315                 5.1299
 Frc consts  --      0.1187                 0.1828                 0.1956
 IR Inten    --      1.1945                 0.0000                 0.0000

                     10                     11                     12
                     B1U                    B3G                    B3G
 Frequencies --    277.8804               314.9953               318.0092
 Red. masses --      5.8831                 8.5606                 4.6560
 Frc consts  --      0.2677                 0.5005                 0.2774
 IR Inten    --      9.8131                 0.0000                 0.0000

                     13                     14                     15
                     B3G                    AG                     B3G
 Frequencies --    319.0283               322.2083               325.0253
 Red. masses --      5.7679                 8.6278                 6.0434
 Frc consts  --      0.3459                 0.5277                 0.3762
 IR Inten    --      0.0001                 0.0000                 3.5241

                     16                     17                     18
                     B2G                    B2U                    AG
 Frequencies --    345.3000               400.7983               422.3241
 Red. masses --      3.9974                 6.0899                 5.8026
 Frc consts  --      0.2808                 0.5764                 0.6098
 IR Inten    --      0.0000                 5.2293                 0.0000

                     19                     20                     21
                     ?C                     B2U                    ?C
 Frequencies --    429.0229               430.9926               458.4658
 Red. masses --      3.4344                 7.6957                 5.1084
 Frc consts  --      0.3724                 0.8422                 0.6326
 IR Inten    --      0.1762                 7.3656                 0.0000

                     22                     23                     24
                     AG                     ?C                     B3G
 Frequencies --    459.3369               459.5479               473.9295
 Red. masses --      6.6236                 3.7959                 5.1424
 Frc consts  --      0.8234                 0.4723                 0.6805
 IR Inten    --      0.0000                 0.0000                 0.0000

                     25                     26                     27
                     B2G                    B1U                    B3U
 Frequencies --    493.6936               501.0064               529.9936
 Red. masses --      3.2313                 5.7787                 4.0630
 Frc consts  --      0.4640                 0.8546                 0.6724
 IR Inten    --      0.0000                 0.7268                16.4128

                     28                     29                     30
                     B2U                    B3G                    ?D
 Frequencies --    543.1026               545.4247               565.9747
 Red. masses --      5.4127                 5.2030                 4.9466
 Frc consts  --      0.9406                 0.9120                 0.9336
 IR Inten    --      4.2442                 0.0000                 0.0000

                     31                     32                     33
                     ?D                     AG                     B1U
 Frequencies --    579.1276               580.9619               590.8111
 Red. masses --      3.4331                 6.6713                 5.3102
 Frc consts  --      0.6784                 1.3267                 1.0921
 IR Inten    --      0.0000                 0.0000                 0.2842

                     34                     35                     36
                     AU                     ?C                     ?C
 Frequencies --    594.6885               622.2574               632.3199
 Red. masses --      5.3608                 5.5444                 3.3967
 Frc consts  --      1.1170                 1.2649                 0.8002
 IR Inten    --      0.0000                 0.0025                32.8986

                     37                     38                     39
                     B3G                    AU                     B1U
 Frequencies --    638.9956               656.0471               666.1310
 Red. masses --      8.5448                 3.2372                 7.1314
 Frc consts  --      2.0556                 0.8209                 1.8644
 IR Inten    --      0.0000                 0.0000                 4.3737

                     40                     41                     42
                     B2U                    ?C                     B3G
 Frequencies --    681.5245               702.1628               713.7744
 Red. masses --      8.0655                 3.8739                 5.0311
 Frc consts  --      2.2072                 1.1253                 1.5102
 IR Inten    --      0.8640                 0.0005                 0.0000

                     43                     44                     45
                     ?C                     B1U                    B3U
 Frequencies --    716.1129               717.9294               747.7170
 Red. masses --      2.9570                 7.4045                 1.7600
 Frc consts  --      0.8934                 2.2486                 0.5797
 IR Inten    --      0.0000                 5.7473                16.9253

                     46                     47                     48
                     ?A                     AG                     ?A
 Frequencies --    763.4998               764.3678               772.1495
 Red. masses --      2.1840                 6.2265                 2.1313
 Frc consts  --      0.7501                 2.1434                 0.7487
 IR Inten    --      0.0005                 0.0000                10.6454

                     49                     50                     51
                     B1G                    B2U                    AU
 Frequencies --    778.3184               783.2345               783.4816
 Red. masses --      1.5502                 6.2165                 3.7054
 Frc consts  --      0.5533                 2.2469                 1.3401
 IR Inten    --      0.0000                11.8769                 0.0000

                     52                     53                     54
                     B2G                    B1U                    AU
 Frequencies --    802.1325               802.2609               810.1665
 Red. masses --      2.3664                 7.4868                 2.0094
 Frc consts  --      0.8971                 2.8391                 0.7771
 IR Inten    --      0.0001                 1.5904                 0.0001

                     55                     56                     57
                     B3U                    B1G                    B3G
 Frequencies --    843.7514               849.0170               872.2870
 Red. masses --      1.5335                 1.5847                 6.4516
 Frc consts  --      0.6432                 0.6730                 2.8923
 IR Inten    --     79.6462                 0.0000                 0.0000

                     58                     59                     60
                     B3G                    ?A                     ?A
 Frequencies --    884.2346               905.5012               910.9185
 Red. masses --      5.5143                 1.4661                 1.5325
 Frc consts  --      2.5403                 0.7083                 0.7492
 IR Inten    --      0.0000                 0.0011                75.7121

                     61                     62                     63
                     AG                     AU                     B1G
 Frequencies --    916.7903               925.4170               930.4456
 Red. masses --      7.1575                 1.3608                 1.4056
 Frc consts  --      3.5445                 0.6866                 0.7169
 IR Inten    --      0.0000                 0.0000                 0.0000

                     64                     65                     66
                     B1U                    B2G                    B3U
 Frequencies --    936.1259               938.0747               939.6064
 Red. masses --      5.8025                 1.5046                 1.5124
 Frc consts  --      2.9959                 0.7801                 0.7867
 IR Inten    --      0.6746                 0.0000                 2.7383

                     67                     68                     69
                     ?B                     ?B                     B2U
 Frequencies --    985.8944               985.8967               994.2328
 Red. masses --      1.3521                 1.3522                 4.5794
 Frc consts  --      0.7743                 0.7744                 2.6671
 IR Inten    --      0.0000                 0.0000                 7.1985

                     70                     71                     72
                     AG                     B3G                    B2U
 Frequencies --   1068.4598              1080.5653              1084.2231
 Red. masses --      4.3173                 2.6305                 2.3746
 Frc consts  --      2.9039                 1.8096                 1.6447
 IR Inten    --      0.0000                 0.0000                 5.3248

                     73                     74                     75
                     B1U                    B3G                    B2U
 Frequencies --   1086.2610              1143.7933              1158.9599
 Red. masses --      4.0190                 2.9557                 1.4699
 Frc consts  --      2.7941                 2.2783                 1.1633
 IR Inten    --      9.9876                 0.0000                45.8042

                     76                     77                     78
                     B1U                    AG                     AG
 Frequencies --   1163.8459              1165.5524              1174.3584
 Red. masses --      1.4239                 1.5330                 1.4268
 Frc consts  --      1.1364                 1.2270                 1.1594
 IR Inten    --     20.7097                 0.0000                 0.0000

                     79                     80                     81
                     B3G                    B2U                    B3G
 Frequencies --   1180.6675              1201.2128              1220.6173
 Red. masses --      2.5336                 1.5344                 1.8913
 Frc consts  --      2.0808                 1.3045                 1.6602
 IR Inten    --      0.0000                 0.3348                 0.0000

                     82                     83                     84
                     B2U                    B1U                    B2U
 Frequencies --   1226.7551              1244.2797              1249.0885
 Red. masses --      1.9931                 2.1180                 2.5717
 Frc consts  --      1.7673                 1.9321                 2.3640
 IR Inten    --    468.2710                27.7124                21.0562

                     85                     86                     87
                     B3G                    AG                     AG
 Frequencies --   1249.9044              1251.5740              1265.9908
 Red. masses --      1.8775                 2.4616                 3.3779
 Frc consts  --      1.7282                 2.2719                 3.1897
 IR Inten    --      0.0000                 0.0000                 0.0000

                     88                     89                     90
                     B1U                    B1U                    B3G
 Frequencies --   1296.5582              1326.8324              1338.3016
 Red. masses --      2.3769                 4.2481                 3.6437
 Frc consts  --      2.3542                 4.4063                 3.8451
 IR Inten    --     57.1308                12.2419                 0.0000

                     91                     92                     93
                     AG                     B2U                    AG
 Frequencies --   1349.6054              1377.2044              1382.8159
 Red. masses --      3.5761                 5.2559                10.2559
 Frc consts  --      3.8377                 5.8734                11.5545
 IR Inten    --      0.0000              1048.2841                 0.0000

                     94                     95                     96
                     B2U                    AG                     B2U
 Frequencies --   1392.1531              1396.9533              1415.3190
 Red. masses --      3.2392                 6.7783                 5.9988
 Frc consts  --      3.6988                 7.7935                 7.0798
 IR Inten    --     64.9669                 0.0000               110.1640

                     97                     98                     99
                     B3G                    B3G                    B1U
 Frequencies --   1420.8421              1424.6020              1430.2037
 Red. masses --      3.4176                 5.2894                 6.6713
 Frc consts  --      4.0650                 6.3247                 8.0400
 IR Inten    --      0.0000                 0.0000                 0.9795

                    100                    101                    102
                     B2U                    AG                     B3G
 Frequencies --   1440.7295              1449.0522              1450.5917
 Red. masses --      8.1852                11.1573                 1.6991
 Frc consts  --     10.0102                13.8031                 2.1065
 IR Inten    --     20.6240                 0.0000                 0.0000

                    103                    104                    105
                     B1U                    B1U                    B2U
 Frequencies --   1458.7525              1467.0638              1470.7744
 Red. masses --      6.5303                 2.2173                 2.4741
 Frc consts  --      8.1874                 2.8118                 3.1533
 IR Inten    --    159.2342                69.6900                36.0207

                    106                    107                    108
                     AG                     B3G                    AG
 Frequencies --   1494.7834              1503.4947              1510.5639
 Red. masses --      5.7897                 2.7686                 2.8408
 Frc consts  --      7.6219                 3.6873                 3.8192
 IR Inten    --      0.0000                 0.0000                 0.0000

                    109                    110                    111
                     B2U                    B3G                    B1U
 Frequencies --   1523.4987              1530.1260              1540.3411
 Red. masses --      4.0356                 8.1336                 4.0133
 Frc consts  --      5.5188                11.2198                 5.6103
 IR Inten    --    226.3379                 0.0000                 3.8139

                    112                    113                    114
                     B1U                    B2U                    B3G
 Frequencies --   1573.7445              1582.8388              1589.0663
 Red. masses --      5.1370                 5.7586                 4.7496
 Frc consts  --      7.4960                 8.5004                 7.0663
 IR Inten    --     29.2702               789.2860                 0.0000

                    115                    116                    117
                     AG                     B2U                    AG
 Frequencies --   1611.9148              1616.7437              1624.0635
 Red. masses --      5.4649                 5.6921                 8.7477
 Frc consts  --      8.3660                 8.7661                13.5941
 IR Inten    --      0.0000                 0.2653                 0.0000

                    118                    119                    120
                     B1U                    B1U                    B3G
 Frequencies --   1651.5765              3165.9533              3165.9890
 Red. masses --      9.9237                 1.0866                 1.0865
 Frc consts  --     15.9485                 6.4171                 6.4164
 IR Inten    --      8.1164                 2.3023                 0.0000

                    121                    122                    123
                     AG                     B1U                    B2U
 Frequencies --   3167.2196              3167.2891              3171.6651
 Red. masses --      1.0892                 1.0892                 1.0868
 Frc consts  --      6.4377                 6.4376                 6.4411
 IR Inten    --      0.0000                24.1854                 6.3381

                    124                    125                    126
                     AG                     B3G                    B1U
 Frequencies --   3171.9032              3172.0535              3172.8220
 Red. masses --      1.0870                 1.0866                 1.0872
 Frc consts  --      6.4432                 6.4419                 6.4486
 IR Inten    --      0.0000                 0.0000                 2.1905

                    127                    128                    129
                     B2U                    AG                     B3G
 Frequencies --   3183.5638              3183.6038              3187.8023
 Red. masses --      1.0947                 1.0946                 1.0927
 Frc consts  --      6.5371                 6.5368                 6.5421
 IR Inten    --     42.2370                 0.0000                 0.0000

                    130                    131                    132
                     B2U                    B1U                    AG
 Frequencies --   3188.6207              3188.7797              3189.4969
 Red. masses --      1.0931                 1.0932                 1.0934
 Frc consts  --      6.5481                 6.5494                 6.5538
 IR Inten    --     65.1031                57.6240                 0.0000

 - Thermochemistry -
 -------------------
 Temperature   298.150 Kelvin.  Pressure   1.00000 Atm.
 Atom     1 has atomic number  6 and mass  12.00000

 Molecular mass:   398.10955 amu.
 Principal axes and moments of inertia in atomic units:
                           1         2         3
     Eigenvalues --  7501.99856********************
           X            0.00000   0.00000   1.00000
           Y            1.00000   0.00000  -0.00000
           Z           -0.00000   1.00000   0.00000
 This molecule is an asymmetric top.
 Rotational symmetry number  4.
 Warning -- assumption of classical behavior for rotation
           may cause significant error
 Rotational temperatures (Kelvin)      0.01155     0.00705     0.00438
 Rotational constants (GHZ):           0.24057     0.14696     0.09123
 Zero-point vibrational energy     911448.4 (Joules/Mol)
                                  217.84138 (Kcal/Mol)
 Warning -- explicit consideration of  34 degrees of freedom as
           vibrations may cause significant error
 Vibrational temperatures:     84.36    90.85   137.69   176.20   224.25
          (Kelvin)            250.75   310.71   364.57   366.06   399.81
                              453.21   457.54   459.01   463.59   467.64
                              496.81   576.66   607.63   617.27   620.10
                              659.63   660.88   661.19   681.88   710.31
                              720.84   762.54   781.40   784.74   814.31
                              833.24   835.87   850.05   855.62   895.29
                              909.77   919.37   943.91   958.41   980.56
                             1010.26  1026.96  1030.33  1032.94  1075.80
                             1098.51  1099.75  1110.95  1119.83  1126.90
                             1127.26  1154.09  1154.27  1165.65  1213.97
                             1221.55  1255.03  1272.22  1302.81  1310.61
                             1319.06  1331.47  1338.70  1346.88  1349.68
                             1351.88  1418.48  1418.49  1430.48  1537.28
                             1554.69  1559.96  1562.89  1645.66  1667.48
                             1674.51  1676.97  1689.64  1698.72  1728.28
                             1756.20  1765.03  1790.24  1797.16  1798.33
                             1800.74  1821.48  1865.46  1909.02  1925.52
                             1941.78  1981.49  1989.56  2003.00  2009.90
                             2036.33  2044.27  2049.68  2057.74  2072.89
                             2084.86  2087.08  2098.82  2110.78  2116.12
                             2150.66  2163.19  2173.36  2191.97  2201.51
                             2216.21  2264.27  2277.35  2286.31  2319.19
                             2326.13  2336.67  2376.25  4555.10  4555.15
                             4556.92  4557.02  4563.32  4563.66  4563.88
                             4564.98  4580.44  4580.50  4586.54  4587.71
                             4587.94  4588.97

 Zero-point correction=                           0.347152 (Hartree/Particle)
 Thermal correction to Energy=                    0.366001
 Thermal correction to Enthalpy=                  0.366946
 Thermal correction to Gibbs Free Energy=         0.303760
 Sum of electronic and zero-point Energies=          -1227.995119
 Sum of electronic and thermal Energies=             -1227.976270
 Sum of electronic and thermal Enthalpies=           -1227.975325
 Sum of electronic and thermal Free Energies=        -1228.038511

                     E (Thermal)             CV                S
                      KCal/Mol        Cal/Mol-Kelvin    Cal/Mol-Kelvin
 Total                  229.669             86.195            132.986
 Electronic               0.000              0.000              0.000
 Translational            0.889              2.981             43.836
 Rotational               0.889              2.981             33.099
 Vibrational            227.892             80.234             56.051
 Vibration     1          0.596              1.974              4.503
 Vibration     2          0.597              1.972              4.356
 Vibration     3          0.603              1.952              3.540
 Vibration     4          0.610              1.930              3.061
 Vibration     5          0.620              1.896              2.599
 Vibration     6          0.627              1.874              2.389
 Vibration     7          0.645              1.817              1.993
 Vibration     8          0.665              1.757              1.707
 Vibration     9          0.665              1.755              1.700
 Vibration    10          0.679              1.714              1.547
 Vibration    11          0.702              1.645              1.336
 Vibration    12          0.704              1.639              1.320
 Vibration    13          0.705              1.637              1.315
 Vibration    14          0.707              1.631              1.299
 Vibration    15          0.709              1.625              1.285
 Vibration    16          0.724              1.585              1.188
 Vibration    17          0.767              1.468              0.960
 Vibration    18          0.785              1.422              0.884
 Vibration    19          0.790              1.407              0.862
 Vibration    20          0.792              1.403              0.855
 Vibration    21          0.816              1.342              0.771
 Vibration    22          0.817              1.340              0.768
 Vibration    23          0.817              1.340              0.767
 Vibration    24          0.831              1.308              0.727
 Vibration    25          0.849              1.264              0.674
 Vibration    26          0.856              1.248              0.656
 Vibration    27          0.885              1.184              0.587
 Vibration    28          0.898              1.155              0.559
 Vibration    29          0.901              1.150              0.554
 Vibration    30          0.922              1.105              0.512
 Vibration    31          0.936              1.076              0.487
 Vibration    32          0.938              1.072              0.484
 Vibration    33          0.948              1.051              0.466
 Vibration    34          0.952              1.043              0.459

 Optimization completed.
    -- Stationary point found.
 Normal termination of Gaussian 16 at Wed Mar  1 00:25:14 2023.
